
     Program BANDS v.7.2 starts on 13Oct2023 at 11:27:25 

     This program is part of the open-source Quantum ESPRESSO suite
     for quantum simulation of materials; please cite
         "P. Giannozzi et al., J. Phys.:Condens. Matter 21 395502 (2009);
         "P. Giannozzi et al., J. Phys.:Condens. Matter 29 465901 (2017);
         "P. Giannozzi et al., J. Chem. Phys. 152 154105 (2020);
          URL http://www.quantum-espresso.org", 
     in publications or presentations arising from this work. More details at
     http://www.quantum-espresso.org/quote

     Serial version
     8475 MiB available memory on the printing compute node when the environment starts


     Reading xml data from directory:

     ./tmp/silicon.save/

     IMPORTANT: XC functional enforced from input :
     Exchange-correlation= PBE
                           (   1   4   3   4   0   0   0)
     Any further DFT definition will be discarded
     Please, verify this is what you really want


     G-vector sticks info
     --------------------
     sticks:   dense  smooth     PW     G-vecs:    dense   smooth      PW
     Sum        1483     745    211                37461    13323    2109

     Using Slab Decomposition

     Reading collected, re-writing distributed wavefunctions
     high-symmetry point: -0.5000-0.5000 0.5000   x coordinate   0.0000
     high-symmetry point:  0.0000 0.0000 0.0000   x coordinate   0.8660
     high-symmetry point:  1.0000 0.0000 0.0000   x coordinate   1.8660
     high-symmetry point:  1.0000 0.2500 0.2500   x coordinate   2.2196
     high-symmetry point:  0.0000 0.0000 0.0000   x coordinate   3.2802

     Plottable bands (eV) written to file si.bands.gnu
     Bands written to file si.bands

 **************************************************************************

                    xk=(  -0.50000,  -0.50000,   0.50000  )

     zone border point and non-symmorphic group 
     symmetry decomposition not available

 **************************************************************************

 **************************************************************************

                    xk=(  -0.47500,  -0.47500,   0.47500  )

     point group C_3v (3m)  
     there are  3 classes
     the character table:

       E     2C3   3s_v 
A_1    1.00  1.00  1.00
A_2    1.00  1.00 -1.00
E      2.00 -1.00  0.00

     the symmetry operations in each class and the name of the first element:

     E        1
                                                                 
     2C3      2    3
                                                                 
     3s_v     4    5    6
                                                                 

     Band symmetry, C_3v (3m)   point group:

     e(  1 -  1) =     -3.50936  eV     1   --> A_1  L_1       
     e(  2 -  2) =     -0.78662  eV     1   --> A_1  L_1       
     e(  3 -  4) =      4.82474  eV     2   --> E    L_3       
     e(  5 -  5) =      7.51512  eV     1   --> A_1  L_1       
     e(  6 -  7) =      9.35729  eV     2   --> E    L_3       
     e(  8 -  8) =     13.72157  eV     1   --> A_1  L_1       

 **************************************************************************

 **************************************************************************

                    xk=(  -0.45000,  -0.45000,   0.45000  )

     Band symmetry, C_3v (3m)   point group:

     e(  1 -  1) =     -3.60523  eV     1   --> A_1  L_1       
     e(  2 -  2) =     -0.64533  eV     1   --> A_1  L_1       
     e(  3 -  4) =      4.83804  eV     2   --> E    L_3       
     e(  5 -  5) =      7.53039  eV     1   --> A_1  L_1       
     e(  6 -  7) =      9.37157  eV     2   --> E    L_3       
     e(  8 -  8) =     13.74313  eV     1   --> A_1  L_1       

 **************************************************************************

 **************************************************************************

                    xk=(  -0.42500,  -0.42500,   0.42500  )

     Band symmetry, C_3v (3m)   point group:

     e(  1 -  1) =     -3.74595  eV     1   --> A_1  L_1       
     e(  2 -  2) =     -0.42901  eV     1   --> A_1  L_1       
     e(  3 -  4) =      4.86018  eV     2   --> E    L_3       
     e(  5 -  5) =      7.55578  eV     1   --> A_1  L_1       
     e(  6 -  7) =      9.39410  eV     2   --> E    L_3       
     e(  8 -  8) =     13.77614  eV     1   --> A_1  L_1       

 **************************************************************************

 **************************************************************************

                    xk=(  -0.40000,  -0.40000,   0.40000  )

     Band symmetry, C_3v (3m)   point group:

     e(  1 -  1) =     -3.91411  eV     1   --> A_1  L_1       
     e(  2 -  2) =     -0.15526  eV     1   --> A_1  L_1       
     e(  3 -  4) =      4.89112  eV     2   --> E    L_3       
     e(  5 -  5) =      7.59117  eV     1   --> A_1  L_1       
     e(  6 -  7) =      9.42293  eV     2   --> E    L_3       
     e(  8 -  8) =     13.81460  eV     1   --> A_1  L_1       

 **************************************************************************

 **************************************************************************

                    xk=(  -0.37500,  -0.37500,   0.37500  )

     Band symmetry, C_3v (3m)   point group:

     e(  1 -  1) =     -4.09604  eV     1   --> A_1  L_1       
     e(  2 -  2) =      0.16195  eV     1   --> A_1  L_1       
     e(  3 -  4) =      4.93079  eV     2   --> E    L_3       
     e(  5 -  5) =      7.63636  eV     1   --> A_1  L_1       
     e(  6 -  7) =      9.45510  eV     2   --> E    L_3       
     e(  8 -  8) =     13.84536  eV     1   --> A_1  L_1       

 **************************************************************************

 **************************************************************************

                    xk=(  -0.35000,  -0.35000,   0.35000  )

     Band symmetry, C_3v (3m)   point group:

     e(  1 -  1) =     -4.28221  eV     1   --> A_1  L_1       
     e(  2 -  2) =      0.51275  eV     1   --> A_1  L_1       
     e(  3 -  4) =      4.97908  eV     2   --> E    L_3       
     e(  5 -  5) =      7.69109  eV     1   --> A_1  L_1       
     e(  6 -  7) =      9.48659  eV     2   --> E    L_3       
     e(  8 -  8) =     13.83904  eV     1   --> A_1  L_1       

 **************************************************************************

 **************************************************************************

                    xk=(  -0.32500,  -0.32500,   0.32500  )

     Band symmetry, C_3v (3m)   point group:

     e(  1 -  1) =     -4.46629  eV     1   --> A_1  L_1       
     e(  2 -  2) =      0.89031  eV     1   --> A_1  L_1       
     e(  3 -  4) =      5.03579  eV     2   --> E    L_3       
     e(  5 -  5) =      7.75498  eV     1   --> A_1  L_1       
     e(  6 -  7) =      9.51217  eV     2   --> E    L_3       
     e(  8 -  8) =     13.74058  eV     1   --> A_1  L_1       

 **************************************************************************

 **************************************************************************

                    xk=(  -0.30000,  -0.30000,   0.30000  )

     Band symmetry, C_3v (3m)   point group:

     e(  1 -  1) =     -4.64407  eV     1   --> A_1  L_1       
     e(  2 -  2) =      1.28979  eV     1   --> A_1  L_1       
     e(  3 -  4) =      5.10065  eV     2   --> E    L_3       
     e(  5 -  5) =      7.82749  eV     1   --> A_1  L_1       
     e(  6 -  7) =      9.52560  eV     2   --> E    L_3       
     e(  8 -  8) =     13.50589  eV     1   --> A_1  L_1       

 **************************************************************************

 **************************************************************************

                    xk=(  -0.27500,  -0.27500,   0.27500  )

     Band symmetry, C_3v (3m)   point group:

     e(  1 -  1) =     -4.81269  eV     1   --> A_1  L_1       
     e(  2 -  2) =      1.70752  eV     1   --> A_1  L_1       
     e(  3 -  4) =      5.17324  eV     2   --> E    L_3       
     e(  5 -  5) =      7.90790  eV     1   --> A_1  L_1       
     e(  6 -  7) =      9.52014  eV     2   --> E    L_3       
     e(  8 -  8) =     13.16329  eV     1   --> A_1  L_1       

 **************************************************************************

 **************************************************************************

                    xk=(  -0.25000,  -0.25000,   0.25000  )

     Band symmetry, C_3v (3m)   point group:

     e(  1 -  1) =     -4.97020  eV     1   --> A_1  L_1       
     e(  2 -  2) =      2.14048  eV     1   --> A_1  L_1       
     e(  3 -  4) =      5.25295  eV     2   --> E    L_3       
     e(  5 -  5) =      7.99521  eV     1   --> A_1  L_1       
     e(  6 -  7) =      9.48976  eV     2   --> E    L_3       
     e(  8 -  8) =     12.76432  eV     1   --> A_1  L_1       

 **************************************************************************

 **************************************************************************

                    xk=(  -0.22500,  -0.22500,   0.22500  )

     Band symmetry, C_3v (3m)   point group:

     e(  1 -  1) =     -5.11521  eV     1   --> A_1  L_1       
     e(  2 -  2) =      2.58588  eV     1   --> A_1  L_1       
     e(  3 -  4) =      5.33895  eV     2   --> E    L_3       
     e(  5 -  5) =      8.08806  eV     1   --> A_1  L_1       
     e(  6 -  7) =      9.43082  eV     2   --> E    L_3       
     e(  8 -  8) =     12.33839  eV     1   --> A_1  L_1       

 **************************************************************************

 **************************************************************************

                    xk=(  -0.20000,  -0.20000,   0.20000  )

     Band symmetry, C_3v (3m)   point group:

     e(  1 -  1) =     -5.24671  eV     1   --> A_1  L_1       
     e(  2 -  2) =      3.04084  eV     1   --> A_1  L_1       
     e(  3 -  4) =      5.43003  eV     2   --> E    L_3       
     e(  5 -  5) =      8.18464  eV     1   --> A_1  L_1       
     e(  6 -  7) =      9.34356  eV     2   --> E    L_3       
     e(  8 -  8) =     11.89895  eV     1   --> A_1  L_1       

 **************************************************************************

 **************************************************************************

                    xk=(  -0.17500,  -0.17500,   0.17500  )

     Band symmetry, C_3v (3m)   point group:

     e(  1 -  1) =     -5.36397  eV     1   --> A_1  L_1       
     e(  2 -  2) =      3.50199  eV     1   --> A_1  L_1       
     e(  3 -  4) =      5.52457  eV     2   --> E    L_3       
     e(  5 -  5) =      8.28245  eV     1   --> A_1  L_1       
     e(  6 -  7) =      9.23244  eV     2   --> E    L_3       
     e(  8 -  8) =     11.45313  eV     1   --> A_1  L_1       

 **************************************************************************

 **************************************************************************

                    xk=(  -0.15000,  -0.15000,   0.15000  )

     Band symmetry, C_3v (3m)   point group:

     e(  1 -  1) =     -5.46645  eV     1   --> A_1  L_1       
     e(  2 -  2) =      3.96500  eV     1   --> A_1  L_1       
     e(  3 -  4) =      5.62033  eV     2   --> E    L_3       
     e(  5 -  5) =      8.37814  eV     1   --> A_1  L_1       
     e(  6 -  7) =      9.10530  eV     2   --> E    L_3       
     e(  8 -  8) =     11.00655  eV     1   --> A_1  L_1       

 **************************************************************************

 **************************************************************************

                    xk=(  -0.12500,  -0.12500,   0.12500  )

     Band symmetry, C_3v (3m)   point group:

     e(  1 -  1) =     -5.55372  eV     1   --> A_1  L_1       
     e(  2 -  2) =      4.42373  eV     1   --> A_1  L_1       
     e(  3 -  4) =      5.71430  eV     2   --> E    L_3       
     e(  5 -  5) =      8.46701  eV     1   --> A_1  L_1       
     e(  6 -  7) =      8.97187  eV     2   --> E    L_3       
     e(  8 -  8) =     10.56630  eV     1   --> A_1  L_1       

 **************************************************************************

 **************************************************************************

                    xk=(  -0.10000,  -0.10000,   0.10000  )

     Band symmetry, C_3v (3m)   point group:

     e(  1 -  1) =     -5.62549  eV     1   --> A_1  L_1       
     e(  2 -  2) =      4.86873  eV     1   --> A_1  L_1       
     e(  3 -  4) =      5.80258  eV     2   --> E    L_3       
     e(  5 -  5) =      8.54237  eV     1   --> A_1  L_1       
     e(  6 -  7) =      8.84251  eV     2   --> E    L_3       
     e(  8 -  8) =     10.14395  eV     1   --> A_1  L_1       

 **************************************************************************

 **************************************************************************

                    xk=(  -0.07500,  -0.07500,   0.07500  )

     Band symmetry, C_3v (3m)   point group:

     e(  1 -  1) =     -5.68153  eV     1   --> A_1  L_1       
     e(  2 -  2) =      5.28426  eV     1   --> A_1  L_1       
     e(  3 -  4) =      5.88029  eV     2   --> E    L_3       
     e(  5 -  5) =      8.59411  eV     1   --> A_1  L_1       
     e(  6 -  7) =      8.72750  eV     2   --> E    L_3       
     e(  8 -  8) =      9.76033  eV     1   --> A_1  L_1       

 **************************************************************************

 **************************************************************************

                    xk=(  -0.05000,  -0.05000,   0.05000  )

     Band symmetry, C_3v (3m)   point group:

     e(  1 -  1) =     -5.72166  eV     1   --> A_1  L_1       
     e(  2 -  2) =      5.64305  eV     1   --> A_1  L_1       
     e(  3 -  4) =      5.94184  eV     2   --> E    L_3       
     e(  5 -  5) =      8.60815  eV     1   --> A_1  L_1       
     e(  6 -  7) =      8.63653  eV     2   --> E    L_3       
     e(  8 -  8) =      9.45182  eV     1   --> A_1  L_1       

 **************************************************************************

 **************************************************************************

                    xk=(  -0.02500,  -0.02500,   0.02500  )

     Band symmetry, C_3v (3m)   point group:

     e(  1 -  1) =     -5.74579  eV     1   --> A_1  L_1       
     e(  2 -  2) =      5.89962  eV     1   --> A_1  L_1       
     e(  3 -  4) =      5.98166  eV     2   --> E    L_3       
     e(  5 -  6) =      8.57798  eV     2   --> E    L_3       
     e(  7 -  7) =      8.58106  eV     1   --> A_1  L_1       
     e(  8 -  8) =      9.26299  eV     1   --> A_1  L_1       

 **************************************************************************

 **************************************************************************

                    xk=(   0.00000,   0.00000,   0.00000  )

     point group O_h (m-3m) 
     there are 10 classes
     the character table:

       E     8C3   3C2   6C4   6C2'  i     8S6   3s_h  6S4   6s_d 
A_1g   1.00  1.00  1.00  1.00  1.00  1.00  1.00  1.00  1.00  1.00
A_2g   1.00  1.00  1.00 -1.00 -1.00  1.00  1.00  1.00 -1.00 -1.00
E_g    2.00 -1.00  2.00  0.00  0.00  2.00 -1.00  2.00  0.00  0.00
T_1g   3.00  0.00 -1.00  1.00 -1.00  3.00  0.00 -1.00  1.00 -1.00
T_2g   3.00  0.00 -1.00 -1.00  1.00  3.00  0.00 -1.00 -1.00  1.00
A_1u   1.00  1.00  1.00  1.00  1.00 -1.00 -1.00 -1.00 -1.00 -1.00
A_2u   1.00  1.00  1.00 -1.00 -1.00 -1.00 -1.00 -1.00  1.00  1.00
E_u    2.00 -1.00  2.00  0.00  0.00 -2.00  1.00 -2.00  0.00  0.00
T_1u   3.00  0.00 -1.00  1.00 -1.00 -3.00  0.00  1.00 -1.00  1.00
T_2u   3.00  0.00 -1.00 -1.00  1.00 -3.00  0.00  1.00  1.00 -1.00

     the symmetry operations in each class and the name of the first element:

     E        1
                                                                 
     8C3     17   19   20   18   24   21   22   23
                                                                 
     3C2      2    4    3
                                                                 
     6C4      7    8   15   16   12   11
                                                                 
     6C2'     5    6   14   13   10    9
                                                                 
     i       25
                                                                 
     8S6     41   43   44   42   48   45   46   47
                                                                 
     3s_h    26   28   27
                                                                 
     6S4     31   32   39   40   36   35
                                                                 
     6s_d    29   30   38   37   34   33
                                                                 

     Band symmetry, O_h (m-3m)  point group:

     e(  1 -  1) =     -5.75384  eV     1   --> A_1g G_1   G_1+
     e(  2 -  4) =      5.99548  eV     3   --> T_2g G_25' G_5+
     e(  5 -  7) =      8.55774  eV     3   --> T_1u G_15  G_4-
     e(  8 -  8) =      9.20436  eV     1   --> A_2u G_2'  G_2-

 **************************************************************************

 **************************************************************************

                    xk=(   0.03333,   0.00000,   0.00000  )

     point group C_4v (4mm) 
     there are  5 classes
     the character table:

       E     2C4   C2    2s_v  2s_d 
A_1    1.00  1.00  1.00  1.00  1.00
A_2    1.00  1.00  1.00 -1.00 -1.00
B_1    1.00 -1.00  1.00  1.00 -1.00
B_2    1.00 -1.00  1.00 -1.00  1.00
E      2.00  0.00 -2.00  0.00  0.00

     the symmetry operations in each class and the name of the first element:

     E        1
                                                                 
     2C4      3    4
                                                                 
     C2       2
                                                                 
     2s_v     5    6
                                                                 
     2s_d     7    8
                                                                 

     Band symmetry, C_4v (4mm)  point group:

     e(  1 -  1) =     -5.74907  eV     1   --> A_1  G_1 D_1   
     e(  2 -  2) =      5.96177  eV     1   --> B_2  G_4 D_2'  
     e(  3 -  4) =      5.97511  eV     2   --> E    G_5 D_5   
     e(  5 -  5) =      8.54602  eV     1   --> A_1  G_1 D_1   
     e(  6 -  7) =      8.58400  eV     2   --> E    G_5 D_5   
     e(  8 -  8) =      9.23739  eV     1   --> B_2  G_4 D_2'  

 **************************************************************************

 **************************************************************************

                    xk=(   0.06667,   0.00000,   0.00000  )

     Band symmetry, C_4v (4mm)  point group:

     e(  1 -  1) =     -5.73476  eV     1   --> A_1  G_1 D_1   
     e(  2 -  2) =      5.86474  eV     1   --> B_2  G_4 D_2'  
     e(  3 -  4) =      5.91645  eV     2   --> E    G_5 D_5   
     e(  5 -  5) =      8.51148  eV     1   --> A_1  G_1 D_1   
     e(  6 -  7) =      8.66029  eV     2   --> E    G_5 D_5   
     e(  8 -  8) =      9.33181  eV     1   --> B_2  G_4 D_2'  

 **************************************************************************

 **************************************************************************

                    xk=(   0.10000,   0.00000,   0.00000  )

     Band symmetry, C_4v (4mm)  point group:

     e(  1 -  1) =     -5.71092  eV     1   --> A_1  G_1 D_1   
     e(  2 -  2) =      5.71464  eV     1   --> B_2  G_4 D_2'  
     e(  3 -  4) =      5.82580  eV     2   --> E    G_5 D_5   
     e(  5 -  5) =      8.45590  eV     1   --> A_1  G_1 D_1   
     e(  6 -  7) =      8.78029  eV     2   --> E    G_5 D_5   
     e(  8 -  8) =      9.47555  eV     1   --> B_2  G_4 D_2'  

 **************************************************************************

 **************************************************************************

                    xk=(   0.13333,   0.00000,   0.00000  )

     Band symmetry, C_4v (4mm)  point group:

     e(  1 -  1) =     -5.67757  eV     1   --> A_1  G_1 D_1   
     e(  2 -  2) =      5.52358  eV     1   --> B_2  G_4 D_2'  
     e(  3 -  4) =      5.71093  eV     2   --> E    G_5 D_5   
     e(  5 -  5) =      8.38191  eV     1   --> A_1  G_1 D_1   
     e(  6 -  7) =      8.93618  eV     2   --> E    G_5 D_5   
     e(  8 -  8) =      9.65291  eV     1   --> B_2  G_4 D_2'  

 **************************************************************************

 **************************************************************************

                    xk=(   0.16667,   0.00000,   0.00000  )

     Band symmetry, C_4v (4mm)  point group:

     e(  1 -  1) =     -5.63473  eV     1   --> A_1  G_1 D_1   
     e(  2 -  2) =      5.30244  eV     1   --> B_2  G_4 D_2'  
     e(  3 -  4) =      5.57918  eV     2   --> E    G_5 D_5   
     e(  5 -  5) =      8.29264  eV     1   --> A_1  G_1 D_1   
     e(  6 -  7) =      9.12050  eV     2   --> E    G_5 D_5   
     e(  8 -  8) =      9.84658  eV     1   --> B_2  G_4 D_2'  

 **************************************************************************

 **************************************************************************

                    xk=(   0.20000,   0.00000,   0.00000  )

     Band symmetry, C_4v (4mm)  point group:

     e(  1 -  1) =     -5.58242  eV     1   --> A_1  G_1 D_1   
     e(  2 -  2) =      5.05975  eV     1   --> B_2  G_4 D_2'  
     e(  3 -  4) =      5.43662  eV     2   --> E    G_5 D_5   
     e(  5 -  5) =      8.19139  eV     1   --> A_1  G_1 D_1   
     e(  6 -  7) =      9.32711  eV     2   --> E    G_5 D_5   
     e(  8 -  8) =     10.03700  eV     1   --> B_2  G_4 D_2'  

 **************************************************************************

 **************************************************************************

                    xk=(   0.23333,   0.00000,   0.00000  )

     Band symmetry, C_4v (4mm)  point group:

     e(  1 -  1) =     -5.52068  eV     1   --> A_1  G_1 D_1   
     e(  2 -  2) =      4.80170  eV     1   --> B_2  G_4 D_2'  
     e(  3 -  4) =      5.28790  eV     2   --> E    G_5 D_5   
     e(  5 -  5) =      8.08134  eV     1   --> A_1  G_1 D_1   
     e(  6 -  7) =      9.55123  eV     2   --> E    G_5 D_5   
     e(  8 -  8) =     10.19951  eV     1   --> B_2  G_4 D_2'  

 **************************************************************************

 **************************************************************************

                    xk=(   0.26667,   0.00000,   0.00000  )

     Band symmetry, C_4v (4mm)  point group:

     e(  1 -  1) =     -5.44954  eV     1   --> A_1  G_1 D_1   
     e(  2 -  2) =      4.53270  eV     1   --> B_2  G_4 D_2'  
     e(  3 -  4) =      5.13648  eV     2   --> E    G_5 D_5   
     e(  5 -  5) =      7.96544  eV     1   --> A_1  G_1 D_1   
     e(  6 -  7) =      9.78926  eV     2   --> E    G_5 D_5   
     e(  8 -  8) =     10.30297  eV     1   --> B_2  G_4 D_2'  

 **************************************************************************

 **************************************************************************

                    xk=(   0.30000,   0.00000,   0.00000  )

     Band symmetry, C_4v (4mm)  point group:

     e(  1 -  1) =     -5.36905  eV     1   --> A_1  G_1 D_1   
     e(  2 -  2) =      4.25585  eV     1   --> B_2  G_4 D_2'  
     e(  3 -  4) =      4.98493  eV     2   --> E    G_5 D_5   
     e(  5 -  5) =      7.84629  eV     1   --> A_1  G_1 D_1   
     e(  6 -  7) =     10.03852  eV     2   --> E    G_5 D_5   
     e(  8 -  8) =     10.31803  eV     1   --> B_2  G_4 D_2'  

 **************************************************************************

 **************************************************************************

                    xk=(   0.33333,   0.00000,   0.00000  )

     Band symmetry, C_4v (4mm)  point group:

     e(  1 -  1) =     -5.27927  eV     1   --> A_1  G_1 D_1   
     e(  2 -  2) =      3.97334  eV     1   --> B_2  G_4 D_2'  
     e(  3 -  4) =      4.83517  eV     2   --> E    G_5 D_5   
     e(  5 -  5) =      7.72614  eV     1   --> A_1  G_1 D_1   
     e(  6 -  6) =     10.23681  eV     1   --> B_2  G_4 D_2'  
     e(  7 -  8) =     10.29694  eV     2   --> E    G_5 D_5   

 **************************************************************************

 **************************************************************************

                    xk=(   0.36667,   0.00000,   0.00000  )

     Band symmetry, C_4v (4mm)  point group:

     e(  1 -  1) =     -5.18026  eV     1   --> A_1  G_1 D_1   
     e(  2 -  2) =      3.68676  eV     1   --> B_2  G_4 D_2'  
     e(  3 -  4) =      4.68861  eV     2   --> E    G_5 D_5   
     e(  5 -  5) =      7.60692  eV     1   --> A_1  G_1 D_1   
     e(  6 -  6) =     10.07880  eV     1   --> B_2  G_4 D_2'  
     e(  7 -  8) =     10.56298  eV     2   --> E    G_5 D_5   

 **************************************************************************

 **************************************************************************

                    xk=(   0.40000,   0.00000,   0.00000  )

     Band symmetry, C_4v (4mm)  point group:

     e(  1 -  1) =     -5.07208  eV     1   --> A_1  G_1 D_1   
     e(  2 -  2) =      3.39725  eV     1   --> B_2  G_4 D_2'  
     e(  3 -  4) =      4.54636  eV     2   --> E    G_5 D_5   
     e(  5 -  5) =      7.49027  eV     1   --> A_1  G_1 D_1   
     e(  6 -  6) =      9.87253  eV     1   --> B_2  G_4 D_2'  
     e(  7 -  8) =     10.83541  eV     2   --> E    G_5 D_5   

 **************************************************************************

 **************************************************************************

                    xk=(   0.43333,   0.00000,   0.00000  )

     Band symmetry, C_4v (4mm)  point group:

     e(  1 -  1) =     -4.95481  eV     1   --> A_1  G_1 D_1   
     e(  2 -  2) =      3.10568  eV     1   --> B_2  G_4 D_2'  
     e(  3 -  4) =      4.40925  eV     2   --> E    G_5 D_5   
     e(  5 -  5) =      7.37756  eV     1   --> A_1  G_1 D_1   
     e(  6 -  6) =      9.64069  eV     1   --> B_2  G_4 D_2'  
     e(  7 -  8) =     11.11329  eV     2   --> E    G_5 D_5   

 **************************************************************************

 **************************************************************************

                    xk=(   0.46667,   0.00000,   0.00000  )

     Band symmetry, C_4v (4mm)  point group:

     e(  1 -  1) =     -4.82853  eV     1   --> A_1  G_1 D_1   
     e(  2 -  2) =      2.81274  eV     1   --> B_2  G_4 D_2'  
     e(  3 -  4) =      4.27795  eV     2   --> E    G_5 D_5   
     e(  5 -  5) =      7.26995  eV     1   --> A_1  G_1 D_1   
     e(  6 -  6) =      9.39792  eV     1   --> B_2  G_4 D_2'  
     e(  7 -  8) =     11.39587  eV     2   --> E    G_5 D_5   

 **************************************************************************

 **************************************************************************

                    xk=(   0.50000,   0.00000,   0.00000  )

     Band symmetry, C_4v (4mm)  point group:

     e(  1 -  1) =     -4.69334  eV     1   --> A_1  G_1 D_1   
     e(  2 -  2) =      2.51900  eV     1   --> B_2  G_4 D_2'  
     e(  3 -  4) =      4.15298  eV     2   --> E    G_5 D_5   
     e(  5 -  5) =      7.16846  eV     1   --> A_1  G_1 D_1   
     e(  6 -  6) =      9.15322  eV     1   --> B_2  G_4 D_2'  
     e(  7 -  8) =     11.68255  eV     2   --> E    G_5 D_5   

 **************************************************************************

 **************************************************************************

                    xk=(   0.53333,   0.00000,   0.00000  )

     Band symmetry, C_4v (4mm)  point group:

     e(  1 -  1) =     -4.54933  eV     1   --> A_1  G_1 D_1   
     e(  2 -  2) =      2.22492  eV     1   --> B_2  G_4 D_2'  
     e(  3 -  4) =      4.03477  eV     2   --> E    G_5 D_5   
     e(  5 -  5) =      7.07391  eV     1   --> A_1  G_1 D_1   
     e(  6 -  6) =      8.91218  eV     1   --> B_2  G_4 D_2'  
     e(  7 -  8) =     11.97287  eV     2   --> E    G_5 D_5   

 **************************************************************************

 **************************************************************************

                    xk=(   0.56667,   0.00000,   0.00000  )

     Band symmetry, C_4v (4mm)  point group:

     e(  1 -  1) =     -4.39663  eV     1   --> A_1  G_1 D_1   
     e(  2 -  2) =      1.93096  eV     1   --> B_2  G_4 D_2'  
     e(  3 -  4) =      3.92368  eV     2   --> E    G_5 D_5   
     e(  5 -  5) =      6.98704  eV     1   --> A_1  G_1 D_1   
     e(  6 -  6) =      8.67837  eV     1   --> B_2  G_4 D_2'  
     e(  7 -  8) =     12.26644  eV     2   --> E    G_5 D_5   

 **************************************************************************

 **************************************************************************

                    xk=(   0.60000,   0.00000,   0.00000  )

     Band symmetry, C_4v (4mm)  point group:

     e(  1 -  1) =     -4.23536  eV     1   --> A_1  G_1 D_1   
     e(  2 -  2) =      1.63753  eV     1   --> B_2  G_4 D_2'  
     e(  3 -  4) =      3.81997  eV     2   --> E    G_5 D_5   
     e(  5 -  5) =      6.90849  eV     1   --> A_1  G_1 D_1   
     e(  6 -  6) =      8.45414  eV     1   --> B_2  G_4 D_2'  
     e(  7 -  8) =     12.56298  eV     2   --> E    G_5 D_5   

 **************************************************************************

 **************************************************************************

                    xk=(   0.63333,   0.00000,   0.00000  )

     Band symmetry, C_4v (4mm)  point group:

     e(  1 -  1) =     -4.06564  eV     1   --> A_1  G_1 D_1   
     e(  2 -  2) =      1.34503  eV     1   --> B_2  G_4 D_2'  
     e(  3 -  4) =      3.72389  eV     2   --> E    G_5 D_5   
     e(  5 -  5) =      6.83882  eV     1   --> A_1  G_1 D_1   
     e(  6 -  6) =      8.24107  eV     1   --> B_2  G_4 D_2'  
     e(  7 -  8) =     12.86223  eV     2   --> E    G_5 D_5   

 **************************************************************************

 **************************************************************************

                    xk=(   0.66667,   0.00000,   0.00000  )

     Band symmetry, C_4v (4mm)  point group:

     e(  1 -  1) =     -3.88764  eV     1   --> A_1  G_1 D_1   
     e(  2 -  2) =      1.05387  eV     1   --> B_2  G_4 D_2'  
     e(  3 -  4) =      3.63564  eV     2   --> E    G_5 D_5   
     e(  5 -  5) =      6.77851  eV     1   --> A_1  G_1 D_1   
     e(  6 -  6) =      8.04021  eV     1   --> B_2  G_4 D_2'  
     e(  7 -  8) =     13.16399  eV     2   --> E    G_5 D_5   

 **************************************************************************

 **************************************************************************

                    xk=(   0.70000,   0.00000,   0.00000  )

     Band symmetry, C_4v (4mm)  point group:

     e(  1 -  1) =     -3.70150  eV     1   --> A_1  G_1 D_1   
     e(  2 -  2) =      0.76446  eV     1   --> B_2  G_4 D_2'  
     e(  3 -  4) =      3.55538  eV     2   --> E    G_5 D_5   
     e(  5 -  5) =      6.72801  eV     1   --> A_1  G_1 D_1   
     e(  6 -  6) =      7.85227  eV     1   --> B_2  G_4 D_2'  
     e(  7 -  8) =     13.46803  eV     2   --> E    G_5 D_5   

 **************************************************************************

 **************************************************************************

                    xk=(   0.73333,   0.00000,   0.00000  )

     Band symmetry, C_4v (4mm)  point group:

     e(  1 -  1) =     -3.50739  eV     1   --> A_1  G_1 D_1   
     e(  2 -  2) =      0.47722  eV     1   --> B_2  G_4 D_2'  
     e(  3 -  4) =      3.48324  eV     2   --> E    G_5 D_5   
     e(  5 -  5) =      6.68773  eV     1   --> A_1  G_1 D_1   
     e(  6 -  6) =      7.67769  eV     1   --> B_2  G_4 D_2'  
     e(  7 -  8) =     13.77412  eV     2   --> E    G_5 D_5   

 **************************************************************************

 **************************************************************************

                    xk=(   0.76667,   0.00000,   0.00000  )

     Band symmetry, C_4v (4mm)  point group:

     e(  1 -  1) =     -3.30552  eV     1   --> A_1  G_1 D_1   
     e(  2 -  2) =      0.19254  eV     1   --> B_2  G_4 D_2'  
     e(  3 -  4) =      3.41936  eV     2   --> E    G_5 D_5   
     e(  5 -  5) =      6.65803  eV     1   --> A_1  G_1 D_1   
     e(  6 -  6) =      7.51676  eV     1   --> B_2  G_4 D_2'  
     e(  7 -  8) =     14.08186  eV     2   --> E    G_5 D_5   

 **************************************************************************

 **************************************************************************

                    xk=(   0.80000,   0.00000,   0.00000  )

     Band symmetry, C_4v (4mm)  point group:

     e(  1 -  1) =     -3.09607  eV     1   --> A_1  G_1 D_1   
     e(  2 -  2) =     -0.08914  eV     1   --> B_2  G_4 D_2'  
     e(  3 -  4) =      3.36381  eV     2   --> E    G_5 D_5   
     e(  5 -  5) =      6.63927  eV     1   --> A_1  G_1 D_1   
     e(  6 -  6) =      7.36960  eV     1   --> B_2  G_4 D_2'  
     e(  7 -  8) =     14.39066  eV     2   --> E    G_5 D_5   

 **************************************************************************

 **************************************************************************

                    xk=(   0.83333,   0.00000,   0.00000  )

     Band symmetry, C_4v (4mm)  point group:

     e(  1 -  1) =     -2.87927  eV     1   --> A_1  G_1 D_1   
     e(  2 -  2) =     -0.36742  eV     1   --> B_2  G_4 D_2'  
     e(  3 -  4) =      3.31669  eV     2   --> E    G_5 D_5   
     e(  5 -  5) =      6.63176  eV     1   --> A_1  G_1 D_1   
     e(  6 -  6) =      7.23625  eV     1   --> B_2  G_4 D_2'  
     e(  7 -  8) =     14.69942  eV     2   --> E    G_5 D_5   

 **************************************************************************

 **************************************************************************

                    xk=(   0.86667,   0.00000,   0.00000  )

     Band symmetry, C_4v (4mm)  point group:

     e(  1 -  1) =     -2.65536  eV     1   --> A_1  G_1 D_1   
     e(  2 -  2) =     -0.64188  eV     1   --> B_2  G_4 D_2'  
     e(  3 -  4) =      3.27804  eV     2   --> E    G_5 D_5   
     e(  5 -  5) =      6.63581  eV     1   --> A_1  G_1 D_1   
     e(  6 -  6) =      7.11667  eV     1   --> B_2  G_4 D_2'  
     e(  7 -  8) =     15.00603  eV     2   --> E    G_5 D_5   

 **************************************************************************

 **************************************************************************

                    xk=(   0.90000,   0.00000,   0.00000  )

     Band symmetry, C_4v (4mm)  point group:

     e(  1 -  1) =     -2.42458  eV     1   --> A_1  G_1 D_1   
     e(  2 -  2) =     -0.91214  eV     1   --> B_2  G_4 D_2'  
     e(  3 -  4) =      3.24794  eV     2   --> E    G_5 D_5   
     e(  5 -  5) =      6.65171  eV     1   --> A_1  G_1 D_1   
     e(  6 -  6) =      7.01073  eV     1   --> B_2  G_4 D_2'  
     e(  7 -  8) =     15.30601  eV     2   --> E    G_5 D_5   

 **************************************************************************

 **************************************************************************

                    xk=(   0.93333,   0.00000,   0.00000  )

     Band symmetry, C_4v (4mm)  point group:

     e(  1 -  1) =     -2.18720  eV     1   --> A_1  G_1 D_1   
     e(  2 -  2) =     -1.17780  eV     1   --> B_2  G_4 D_2'  
     e(  3 -  4) =      3.22641  eV     2   --> E    G_5 D_5   
     e(  5 -  5) =      6.67974  eV     1   --> A_1  G_1 D_1   
     e(  6 -  6) =      6.91831  eV     1   --> B_2  G_4 D_2'  
     e(  7 -  8) =     15.58836  eV     2   --> E    G_5 D_5   

 **************************************************************************

 **************************************************************************

                    xk=(   0.96667,   0.00000,   0.00000  )

     Band symmetry, C_4v (4mm)  point group:

     e(  1 -  1) =     -1.94352  eV     1   --> A_1  G_1 D_1   
     e(  2 -  2) =     -1.43849  eV     1   --> B_2  G_4 D_2'  
     e(  3 -  4) =      3.21348  eV     2   --> E    G_5 D_5   
     e(  5 -  5) =      6.72016  eV     1   --> A_1  G_1 D_1   
     e(  6 -  6) =      6.83922  eV     1   --> B_2  G_4 D_2'  
     e(  7 -  8) =     15.82204  eV     2   --> E    G_5 D_5   

 **************************************************************************

 **************************************************************************

                    xk=(   1.00000,   0.00000,   0.00000  )

     zone border point and non-symmorphic group 
     symmetry decomposition not available

 **************************************************************************

 **************************************************************************

                    xk=(   1.00000,   0.02500,   0.02500  )

     zone border point and non-symmorphic group 
     symmetry decomposition not available

 **************************************************************************

 **************************************************************************

                    xk=(   1.00000,   0.05000,   0.05000  )

     zone border point and non-symmorphic group 
     symmetry decomposition not available

 **************************************************************************

 **************************************************************************

                    xk=(   1.00000,   0.07500,   0.07500  )

     zone border point and non-symmorphic group 
     symmetry decomposition not available

 **************************************************************************

 **************************************************************************

                    xk=(   1.00000,   0.10000,   0.10000  )

     zone border point and non-symmorphic group 
     symmetry decomposition not available

 **************************************************************************

 **************************************************************************

                    xk=(   1.00000,   0.12500,   0.12500  )

     zone border point and non-symmorphic group 
     symmetry decomposition not available

 **************************************************************************

 **************************************************************************

                    xk=(   1.00000,   0.15000,   0.15000  )

     zone border point and non-symmorphic group 
     symmetry decomposition not available

 **************************************************************************

 **************************************************************************

                    xk=(   1.00000,   0.17500,   0.17500  )

     zone border point and non-symmorphic group 
     symmetry decomposition not available

 **************************************************************************

 **************************************************************************

                    xk=(   1.00000,   0.20000,   0.20000  )

     zone border point and non-symmorphic group 
     symmetry decomposition not available

 **************************************************************************

 **************************************************************************

                    xk=(   1.00000,   0.22500,   0.22500  )

     zone border point and non-symmorphic group 
     symmetry decomposition not available

 **************************************************************************

 **************************************************************************

                    xk=(   1.00000,   0.25000,   0.25000  )

     zone border point and non-symmorphic group 
     symmetry decomposition not available

 **************************************************************************

 **************************************************************************

                    xk=(   0.96667,   0.24167,   0.24167  )

     point group C_s (m)    
     there are  2 classes
     the character table:

       E     s    
A'     1.00  1.00
A''    1.00 -1.00

     the symmetry operations in each class and the name of the first element:

     E        1
                                                                 
     s        2
                                                                 

     Band symmetry, C_s (m)     point group:

     e(  1 -  1) =     -2.10765  eV     1   --> A'             
     e(  2 -  2) =     -1.11603  eV     1   --> A'             
     e(  3 -  3) =      1.85202  eV     1   --> A'             
     e(  4 -  4) =      3.60409  eV     1   --> A''            
     e(  5 -  5) =      7.22981  eV     1   --> A'             
     e(  6 -  6) =      9.96041  eV     1   --> A'             
     e(  7 -  7) =     13.40470  eV     1   --> A''            
     e(  8 -  8) =     13.76785  eV     1   --> A'             

 **************************************************************************

 **************************************************************************

                    xk=(   0.93333,   0.23333,   0.23333  )

     Band symmetry, C_s (m)     point group:

     e(  1 -  1) =     -2.19084  eV     1   --> A'             
     e(  2 -  2) =     -1.04144  eV     1   --> A'             
     e(  3 -  3) =      1.92295  eV     1   --> A'             
     e(  4 -  4) =      3.59016  eV     1   --> A''            
     e(  5 -  5) =      7.21681  eV     1   --> A'             
     e(  6 -  6) =      9.81524  eV     1   --> A'             
     e(  7 -  7) =     13.32773  eV     1   --> A''            
     e(  8 -  8) =     13.54983  eV     1   --> A'             

 **************************************************************************

 **************************************************************************

                    xk=(   0.90000,   0.22500,   0.22500  )

     Band symmetry, C_s (m)     point group:

     e(  1 -  1) =     -2.33268  eV     1   --> A'             
     e(  2 -  2) =     -0.90781  eV     1   --> A'             
     e(  3 -  3) =      2.01716  eV     1   --> A'             
     e(  4 -  4) =      3.58513  eV     1   --> A''            
     e(  5 -  5) =      7.21566  eV     1   --> A'             
     e(  6 -  6) =      9.68422  eV     1   --> A'             
     e(  7 -  7) =     13.20242  eV     1   --> A''            
     e(  8 -  8) =     13.32909  eV     1   --> A'             

 **************************************************************************

 **************************************************************************

                    xk=(   0.86667,   0.21667,   0.21667  )

     Band symmetry, C_s (m)     point group:

     e(  1 -  1) =     -2.50811  eV     1   --> A'             
     e(  2 -  2) =     -0.73693  eV     1   --> A'             
     e(  3 -  3) =      2.13108  eV     1   --> A'             
     e(  4 -  4) =      3.58911  eV     1   --> A''            
     e(  5 -  5) =      7.22593  eV     1   --> A'             
     e(  6 -  6) =      9.56829  eV     1   --> A'             
     e(  7 -  7) =     13.05815  eV     1   --> A''            
     e(  8 -  8) =     13.10881  eV     1   --> A'             

 **************************************************************************

 **************************************************************************

                    xk=(   0.83333,   0.20833,   0.20833  )

     Band symmetry, C_s (m)     point group:

     e(  1 -  1) =     -2.70089  eV     1   --> A'             
     e(  2 -  2) =     -0.54238  eV     1   --> A'             
     e(  3 -  3) =      2.26165  eV     1   --> A'             
     e(  4 -  4) =      3.60219  eV     1   --> A''            
     e(  5 -  5) =      7.24697  eV     1   --> A'             
     e(  6 -  6) =      9.46851  eV     1   --> A'             
     e(  7 -  7) =     12.88982  eV     1   --> A'             
     e(  8 -  8) =     12.90693  eV     1   --> A''            

 **************************************************************************

 **************************************************************************

                    xk=(   0.80000,   0.20000,   0.20000  )

     Band symmetry, C_s (m)     point group:

     e(  1 -  1) =     -2.90177  eV     1   --> A'             
     e(  2 -  2) =     -0.33133  eV     1   --> A'             
     e(  3 -  3) =      2.40625  eV     1   --> A'             
     e(  4 -  4) =      3.62444  eV     1   --> A''            
     e(  5 -  5) =      7.27785  eV     1   --> A'             
     e(  6 -  6) =      9.38615  eV     1   --> A'             
     e(  7 -  7) =     12.67249  eV     1   --> A'             
     e(  8 -  8) =     12.75363  eV     1   --> A''            

 **************************************************************************

 **************************************************************************

                    xk=(   0.76667,   0.19167,   0.19167  )

     Band symmetry, C_s (m)     point group:

     e(  1 -  1) =     -3.10529  eV     1   --> A'             
     e(  2 -  2) =     -0.10756  eV     1   --> A'             
     e(  3 -  3) =      2.56264  eV     1   --> A'             
     e(  4 -  4) =      3.65588  eV     1   --> A''            
     e(  5 -  5) =      7.31736  eV     1   --> A'             
     e(  6 -  6) =      9.32269  eV     1   --> A'             
     e(  7 -  7) =     12.45703  eV     1   --> A'             
     e(  8 -  8) =     12.60008  eV     1   --> A''            

 **************************************************************************

 **************************************************************************

                    xk=(   0.73333,   0.18333,   0.18333  )

     Band symmetry, C_s (m)     point group:

     e(  1 -  1) =     -3.30802  eV     1   --> A'             
     e(  2 -  2) =      0.12681  eV     1   --> A'             
     e(  3 -  3) =      2.72885  eV     1   --> A'             
     e(  4 -  4) =      3.69652  eV     1   --> A''            
     e(  5 -  5) =      7.36397  eV     1   --> A'             
     e(  6 -  6) =      9.27981  eV     1   --> A'             
     e(  7 -  7) =     12.24364  eV     1   --> A'             
     e(  8 -  8) =     12.44669  eV     1   --> A''            

 **************************************************************************

 **************************************************************************

                    xk=(   0.70000,   0.17500,   0.17500  )

     Band symmetry, C_s (m)     point group:

     e(  1 -  1) =     -3.50764  eV     1   --> A'             
     e(  2 -  2) =      0.37050  eV     1   --> A'             
     e(  3 -  3) =      2.90310  eV     1   --> A'             
     e(  4 -  4) =      3.74635  eV     1   --> A''            
     e(  5 -  5) =      7.41587  eV     1   --> A'             
     e(  6 -  6) =      9.25932  eV     1   --> A'             
     e(  7 -  7) =     12.03252  eV     1   --> A'             
     e(  8 -  8) =     12.29299  eV     1   --> A''            

 **************************************************************************

 **************************************************************************

                    xk=(   0.66667,   0.16667,   0.16667  )

     Band symmetry, C_s (m)     point group:

     e(  1 -  1) =     -3.70254  eV     1   --> A'             
     e(  2 -  2) =      0.62271  eV     1   --> A'             
     e(  3 -  3) =      3.08379  eV     1   --> A'             
     e(  4 -  4) =      3.80530  eV     1   --> A''            
     e(  5 -  5) =      7.47109  eV     1   --> A'             
     e(  6 -  6) =      9.26299  eV     1   --> A'             
     e(  7 -  7) =     11.82399  eV     1   --> A'             
     e(  8 -  8) =     12.13800  eV     1   --> A''            

 **************************************************************************

 **************************************************************************

                    xk=(   0.63333,   0.15833,   0.15833  )

     Band symmetry, C_s (m)     point group:

     e(  1 -  1) =     -3.89152  eV     1   --> A'             
     e(  2 -  2) =      0.88285  eV     1   --> A'             
     e(  3 -  3) =      3.26943  eV     1   --> A'             
     e(  4 -  4) =      3.87331  eV     1   --> A''            
     e(  5 -  5) =      7.52771  eV     1   --> A'             
     e(  6 -  6) =      9.29220  eV     1   --> A'             
     e(  7 -  7) =     11.61851  eV     1   --> A'             
     e(  8 -  8) =     11.98037  eV     1   --> A''            

 **************************************************************************

 **************************************************************************

                    xk=(   0.60000,   0.15000,   0.15000  )

     Band symmetry, C_s (m)     point group:

     e(  1 -  1) =     -4.07365  eV     1   --> A'             
     e(  2 -  2) =      1.15052  eV     1   --> A'             
     e(  3 -  3) =      3.45863  eV     1   --> A'             
     e(  4 -  4) =      3.95027  eV     1   --> A''            
     e(  5 -  5) =      7.58418  eV     1   --> A'             
     e(  6 -  6) =      9.34755  eV     1   --> A'             
     e(  7 -  7) =     11.41683  eV     1   --> A'             
     e(  8 -  8) =     11.81847  eV     1   --> A''            

 **************************************************************************

 **************************************************************************

                    xk=(   0.56667,   0.14167,   0.14167  )

     Band symmetry, C_s (m)     point group:

     e(  1 -  1) =     -4.24822  eV     1   --> A'             
     e(  2 -  2) =      1.42534  eV     1   --> A'             
     e(  3 -  3) =      3.65010  eV     1   --> A'             
     e(  4 -  4) =      4.03602  eV     1   --> A''            
     e(  5 -  5) =      7.63950  eV     1   --> A'             
     e(  6 -  6) =      9.42822  eV     1   --> A'             
     e(  7 -  7) =     11.22020  eV     1   --> A'             
     e(  8 -  8) =     11.65059  eV     1   --> A''            

 **************************************************************************

 **************************************************************************

                    xk=(   0.53333,   0.13333,   0.13333  )

     Band symmetry, C_s (m)     point group:

     e(  1 -  1) =     -4.41468  eV     1   --> A'             
     e(  2 -  2) =      1.70697  eV     1   --> A'             
     e(  3 -  3) =      3.84258  eV     1   --> A'             
     e(  4 -  4) =      4.13038  eV     1   --> A''            
     e(  5 -  5) =      7.69344  eV     1   --> A'             
     e(  6 -  6) =      9.53129  eV     1   --> A'             
     e(  7 -  7) =     11.03084  eV     1   --> A'             
     e(  8 -  8) =     11.47508  eV     1   --> A''            

 **************************************************************************

 **************************************************************************

                    xk=(   0.50000,   0.12500,   0.12500  )

     Band symmetry, C_s (m)     point group:

     e(  1 -  1) =     -4.57255  eV     1   --> A'             
     e(  2 -  2) =      1.99508  eV     1   --> A'             
     e(  3 -  3) =      4.03490  eV     1   --> A'             
     e(  4 -  4) =      4.23309  eV     1   --> A''            
     e(  5 -  5) =      7.74646  eV     1   --> A'             
     e(  6 -  6) =      9.65028  eV     1   --> A'             
     e(  7 -  7) =     10.85319  eV     1   --> A'             
     e(  8 -  8) =     11.29058  eV     1   --> A''            

 **************************************************************************

 **************************************************************************

                    xk=(   0.46667,   0.11667,   0.11667  )

     Band symmetry, C_s (m)     point group:

     e(  1 -  1) =     -4.72146  eV     1   --> A'             
     e(  2 -  2) =      2.28927  eV     1   --> A'             
     e(  3 -  3) =      4.22592  eV     1   --> A'             
     e(  4 -  4) =      4.34386  eV     1   --> A''            
     e(  5 -  5) =      7.79949  eV     1   --> A'             
     e(  6 -  6) =      9.77171  eV     1   --> A'             
     e(  7 -  7) =     10.69715  eV     1   --> A'             
     e(  8 -  8) =     11.09624  eV     1   --> A''            

 **************************************************************************

 **************************************************************************

                    xk=(   0.43333,   0.10833,   0.10833  )

     Band symmetry, C_s (m)     point group:

     e(  1 -  1) =     -4.86110  eV     1   --> A'             
     e(  2 -  2) =      2.58910  eV     1   --> A'             
     e(  3 -  3) =      4.41451  eV     1   --> A'             
     e(  4 -  4) =      4.46229  eV     1   --> A''            
     e(  5 -  5) =      7.85364  eV     1   --> A'             
     e(  6 -  6) =      9.86674  eV     1   --> A'             
     e(  7 -  7) =     10.58608  eV     1   --> A'             
     e(  8 -  8) =     10.89192  eV     1   --> A''            

 **************************************************************************

 **************************************************************************

                    xk=(   0.40000,   0.10000,   0.10000  )

     Band symmetry, C_s (m)     point group:

     e(  1 -  1) =     -4.99120  eV     1   --> A'             
     e(  2 -  2) =      2.89400  eV     1   --> A'             
     e(  3 -  3) =      4.58787  eV     1   --> A''            
     e(  4 -  4) =      4.59956  eV     1   --> A'             
     e(  5 -  5) =      7.90995  eV     1   --> A'             
     e(  6 -  6) =      9.88755  eV     1   --> A'             
     e(  7 -  7) =     10.55920  eV     1   --> A'             
     e(  8 -  8) =     10.67830  eV     1   --> A''            

 **************************************************************************

 **************************************************************************

                    xk=(   0.36667,   0.09167,   0.09167  )

     Band symmetry, C_s (m)     point group:

     e(  1 -  1) =     -5.11154  eV     1   --> A'             
     e(  2 -  2) =      3.20328  eV     1   --> A'             
     e(  3 -  3) =      4.71998  eV     1   --> A''            
     e(  4 -  4) =      4.77991  eV     1   --> A'             
     e(  5 -  5) =      7.96920  eV     1   --> A'             
     e(  6 -  6) =      9.81715  eV     1   --> A'             
     e(  7 -  7) =     10.45684  eV     1   --> A''            
     e(  8 -  8) =     10.61929  eV     1   --> A'             

 **************************************************************************

 **************************************************************************

                    xk=(   0.33333,   0.08333,   0.08333  )

     Band symmetry, C_s (m)     point group:

     e(  1 -  1) =     -5.22194  eV     1   --> A'             
     e(  2 -  2) =      3.51602  eV     1   --> A'             
     e(  3 -  3) =      4.85779  eV     1   --> A''            
     e(  4 -  4) =      4.95437  eV     1   --> A'             
     e(  5 -  5) =      8.03180  eV     1   --> A'             
     e(  6 -  6) =      9.69404  eV     1   --> A'             
     e(  7 -  7) =     10.22976  eV     1   --> A''            
     e(  8 -  8) =     10.70353  eV     1   --> A'             

 **************************************************************************

 **************************************************************************

                    xk=(   0.30000,   0.07500,   0.07500  )

     Band symmetry, C_s (m)     point group:

     e(  1 -  1) =     -5.32223  eV     1   --> A'             
     e(  2 -  2) =      3.83099  eV     1   --> A'             
     e(  3 -  3) =      5.00021  eV     1   --> A''            
     e(  4 -  4) =      5.12164  eV     1   --> A'             
     e(  5 -  5) =      8.09764  eV     1   --> A'             
     e(  6 -  6) =      9.55137  eV     1   --> A'             
     e(  7 -  7) =      9.99985  eV     1   --> A''            
     e(  8 -  8) =     10.74107  eV     1   --> A'             

 **************************************************************************

 **************************************************************************

                    xk=(   0.26667,   0.06667,   0.06667  )

     Band symmetry, C_s (m)     point group:

     e(  1 -  1) =     -5.41228  eV     1   --> A'             
     e(  2 -  2) =      4.14654  eV     1   --> A'             
     e(  3 -  3) =      5.14580  eV     1   --> A''            
     e(  4 -  4) =      5.28028  eV     1   --> A'             
     e(  5 -  5) =      8.16609  eV     1   --> A'             
     e(  6 -  6) =      9.40415  eV     1   --> A'             
     e(  7 -  7) =      9.77038  eV     1   --> A''            
     e(  8 -  8) =     10.68023  eV     1   --> A'             

 **************************************************************************

 **************************************************************************

                    xk=(   0.23333,   0.05833,   0.05833  )

     Band symmetry, C_s (m)     point group:

     e(  1 -  1) =     -5.49198  eV     1   --> A'             
     e(  2 -  2) =      4.46034  eV     1   --> A'             
     e(  3 -  3) =      5.29266  eV     1   --> A''            
     e(  4 -  4) =      5.42867  eV     1   --> A'             
     e(  5 -  5) =      8.23594  eV     1   --> A'             
     e(  6 -  6) =      9.25909  eV     1   --> A'             
     e(  7 -  7) =      9.54510  eV     1   --> A''            
     e(  8 -  8) =     10.51477  eV     1   --> A'             

 **************************************************************************

 **************************************************************************

                    xk=(   0.20000,   0.05000,   0.05000  )

     Band symmetry, C_s (m)     point group:

     e(  1 -  1) =     -5.56123  eV     1   --> A'             
     e(  2 -  2) =      4.76902  eV     1   --> A'             
     e(  3 -  3) =      5.43815  eV     1   --> A''            
     e(  4 -  4) =      5.56497  eV     1   --> A'             
     e(  5 -  5) =      8.30536  eV     1   --> A'             
     e(  6 -  6) =      9.11973  eV     1   --> A'             
     e(  7 -  7) =      9.32830  eV     1   --> A''            
     e(  8 -  8) =     10.28056  eV     1   --> A'             

 **************************************************************************

 **************************************************************************

                    xk=(   0.16667,   0.04167,   0.04167  )

     Band symmetry, C_s (m)     point group:

     e(  1 -  1) =     -5.61995  eV     1   --> A'             
     e(  2 -  2) =      5.06764  eV     1   --> A'             
     e(  3 -  3) =      5.57874  eV     1   --> A''            
     e(  4 -  4) =      5.68703  eV     1   --> A'             
     e(  5 -  5) =      8.37193  eV     1   --> A'             
     e(  6 -  6) =      8.98811  eV     1   --> A'             
     e(  7 -  7) =      9.12499  eV     1   --> A''            
     e(  8 -  8) =     10.01874  eV     1   --> A'             

 **************************************************************************

 **************************************************************************

                    xk=(   0.13333,   0.03333,   0.03333  )

     Band symmetry, C_s (m)     point group:

     e(  1 -  1) =     -5.66809  eV     1   --> A'             
     e(  2 -  2) =      5.34869  eV     1   --> A'             
     e(  3 -  3) =      5.70961  eV     1   --> A''            
     e(  4 -  4) =      5.79242  eV     1   --> A'             
     e(  5 -  5) =      8.43274  eV     1   --> A'             
     e(  6 -  6) =      8.86550  eV     1   --> A'             
     e(  7 -  7) =      8.94119  eV     1   --> A''            
     e(  8 -  8) =      9.76076  eV     1   --> A'             

 **************************************************************************

 **************************************************************************

                    xk=(   0.10000,   0.02500,   0.02500  )

     Band symmetry, C_s (m)     point group:

     e(  1 -  1) =     -5.70557  eV     1   --> A'             
     e(  2 -  2) =      5.60081  eV     1   --> A'             
     e(  3 -  3) =      5.82447  eV     1   --> A''            
     e(  4 -  4) =      5.87848  eV     1   --> A'             
     e(  5 -  5) =      8.48458  eV     1   --> A'             
     e(  6 -  6) =      8.75327  eV     1   --> A'             
     e(  7 -  7) =      8.78418  eV     1   --> A''            
     e(  8 -  8) =      9.53173  eV     1   --> A'             

 **************************************************************************

 **************************************************************************

                    xk=(   0.06667,   0.01667,   0.01667  )

     Band symmetry, C_s (m)     point group:

     e(  1 -  1) =     -5.73238  eV     1   --> A'             
     e(  2 -  2) =      5.80724  eV     1   --> A'             
     e(  3 -  3) =      5.91563  eV     1   --> A''            
     e(  4 -  4) =      5.94251  eV     1   --> A'             
     e(  5 -  5) =      8.52429  eV     1   --> A'             
     e(  6 -  6) =      8.65569  eV     1   --> A'             
     e(  7 -  7) =      8.66240  eV     1   --> A''            
     e(  8 -  8) =      9.35344  eV     1   --> A'             

 **************************************************************************

 **************************************************************************

                    xk=(   0.03333,   0.00833,   0.00833  )

     Band symmetry, C_s (m)     point group:

     e(  1 -  1) =     -5.74847  eV     1   --> A'             
     e(  2 -  2) =      5.94602  eV     1   --> A'             
     e(  3 -  3) =      5.97486  eV     1   --> A''            
     e(  4 -  4) =      5.98208  eV     1   --> A'             
     e(  5 -  5) =      8.54924  eV     1   --> A'             
     e(  6 -  7) =      8.58458  eV     2   --> A'             
     e(  6 -  7) =      8.58458  eV     2   --> A''            
     e(  8 -  8) =      9.24194  eV     1   --> A'             

 **************************************************************************

 **************************************************************************

                    xk=(   0.00000,   0.00000,   0.00000  )

     point group O_h (m-3m) 
     there are 10 classes
     the character table:

       E     8C3   3C2   6C4   6C2'  i     8S6   3s_h  6S4   6s_d 
A_1g   1.00  1.00  1.00  1.00  1.00  1.00  1.00  1.00  1.00  1.00
A_2g   1.00  1.00  1.00 -1.00 -1.00  1.00  1.00  1.00 -1.00 -1.00
E_g    2.00 -1.00  2.00  0.00  0.00  2.00 -1.00  2.00  0.00  0.00
T_1g   3.00  0.00 -1.00  1.00 -1.00  3.00  0.00 -1.00  1.00 -1.00
T_2g   3.00  0.00 -1.00 -1.00  1.00  3.00  0.00 -1.00 -1.00  1.00
A_1u   1.00  1.00  1.00  1.00  1.00 -1.00 -1.00 -1.00 -1.00 -1.00
A_2u   1.00  1.00  1.00 -1.00 -1.00 -1.00 -1.00 -1.00  1.00  1.00
E_u    2.00 -1.00  2.00  0.00  0.00 -2.00  1.00 -2.00  0.00  0.00
T_1u   3.00  0.00 -1.00  1.00 -1.00 -3.00  0.00  1.00 -1.00  1.00
T_2u   3.00  0.00 -1.00 -1.00  1.00 -3.00  0.00  1.00  1.00 -1.00

     the symmetry operations in each class and the name of the first element:

     E        1
                                                                 
     8C3     17   19   20   18   24   21   22   23
                                                                 
     3C2      2    4    3
                                                                 
     6C4      7    8   15   16   12   11
                                                                 
     6C2'     5    6   14   13   10    9
                                                                 
     i       25
                                                                 
     8S6     41   43   44   42   48   45   46   47
                                                                 
     3s_h    26   28   27
                                                                 
     6S4     31   32   39   40   36   35
                                                                 
     6s_d    29   30   38   37   34   33
                                                                 

     Band symmetry, O_h (m-3m)  point group:

     e(  1 -  1) =     -5.75384  eV     1   --> A_1g G_1   G_1+
     e(  2 -  4) =      5.99548  eV     3   --> T_2g G_25' G_5+
     e(  5 -  7) =      8.55774  eV     3   --> T_1u G_15  G_4-
     e(  8 -  8) =      9.20436  eV     1   --> A_2u G_2'  G_2-

 **************************************************************************

     BANDS        :      4.42s CPU      4.48s WALL


   This run was terminated on:  11:27:30  13Oct2023            

=------------------------------------------------------------------------------=
   JOB DONE.
=------------------------------------------------------------------------------=
