
     Program PWSCF v.7.2 starts on 13Oct2023 at 11:20:35 

     This program is part of the open-source Quantum ESPRESSO suite
     for quantum simulation of materials; please cite
         "P. Giannozzi et al., J. Phys.:Condens. Matter 21 395502 (2009);
         "P. Giannozzi et al., J. Phys.:Condens. Matter 29 465901 (2017);
         "P. Giannozzi et al., J. Chem. Phys. 152 154105 (2020);
          URL http://www.quantum-espresso.org", 
     in publications or presentations arising from this work. More details at
     http://www.quantum-espresso.org/quote

     Serial version
     8386 MiB available memory on the printing compute node when the environment starts

     Waiting for input...
     Reading input from standard input

     Current dimensions of program PWSCF are:
     Max number of different atomic species (ntypx) = 10
     Max number of k-points (npk) =  40000
     Max angular momentum in pseudopotentials (lmaxx) =  4

     Atomic positions and unit cell read from directory:
     ./tmp/silicon.save/

     Message from routine setup:
     no reason to have ecutrho>4*ecutwfc


     G-vector sticks info
     --------------------
     sticks:   dense  smooth     PW     G-vecs:    dense   smooth      PW
     Sum        1483     745    211                37461    13323    2109

     Using Slab Decomposition



     bravais-lattice index     =            2
     lattice parameter (alat)  =      10.3400  a.u.
     unit-cell volume          =     276.3768 (a.u.)^3
     number of atoms/cell      =            2
     number of atomic types    =            1
     number of electrons       =         8.00
     number of Kohn-Sham states=            8
     kinetic-energy cutoff     =      50.0000  Ry
     charge density cutoff     =     400.0000  Ry
     Exchange-correlation=  SLA  PW   PBE  PBE
                           (   1   4   3   4   0   0   0)

     celldm(1)=  10.340000  celldm(2)=   0.000000  celldm(3)=   0.000000
     celldm(4)=   0.000000  celldm(5)=   0.000000  celldm(6)=   0.000000

     crystal axes: (cart. coord. in units of alat)
               a(1) = (  -0.500000   0.000000   0.500000 )  
               a(2) = (   0.000000   0.500000   0.500000 )  
               a(3) = (  -0.500000   0.500000   0.000000 )  

     reciprocal axes: (cart. coord. in units 2 pi/alat)
               b(1) = ( -1.000000 -1.000000  1.000000 )  
               b(2) = (  1.000000  1.000000  1.000000 )  
               b(3) = ( -1.000000  1.000000 -1.000000 )  


     PseudoPot. # 1 for Si read from file:
     ././Si.UPF
     MD5 check sum: cf7ab5690cd9a85b22c4813f7e365554
     Pseudo is Norm-conserving, Zval =  4.0
     Generated by new atomic code, or converted to UPF format
     Using radial grid of  883 points,  3 beta functions with: 
                l(1) =   0
                l(2) =   0
                l(3) =   1

     atomic species   valence    mass     pseudopotential
        Si             4.00    28.08600     Si( 1.00)

     48 Sym. Ops., with inversion, found (24 have fractional translation)


                                    s                        frac. trans.

      isym =  1     identity                                     

 cryst.   s( 1) = (     1          0          0      )
                  (     0          1          0      )
                  (     0          0          1      )

 cart.    s( 1) = (  1.0000000  0.0000000  0.0000000 )
                  (  0.0000000  1.0000000  0.0000000 )
                  (  0.0000000  0.0000000  1.0000000 )


      isym =  2     180 deg rotation - cart. axis [0,0,1]        

 cryst.   s( 2) = (     0          1         -1      )
                  (     1          0         -1      )
                  (     0          0         -1      )

 cart.    s( 2) = ( -1.0000000  0.0000000  0.0000000 )
                  (  0.0000000 -1.0000000  0.0000000 )
                  (  0.0000000  0.0000000  1.0000000 )


      isym =  3     180 deg rotation - cart. axis [0,1,0]        

 cryst.   s( 3) = (    -1          0          0      )
                  (    -1          0          1      )
                  (    -1          1          0      )

 cart.    s( 3) = ( -1.0000000  0.0000000  0.0000000 )
                  (  0.0000000  1.0000000  0.0000000 )
                  (  0.0000000  0.0000000 -1.0000000 )


      isym =  4     180 deg rotation - cart. axis [1,0,0]        

 cryst.   s( 4) = (     0         -1          1      )
                  (     0         -1          0      )
                  (     1         -1          0      )

 cart.    s( 4) = (  1.0000000  0.0000000  0.0000000 )
                  (  0.0000000 -1.0000000  0.0000000 )
                  (  0.0000000  0.0000000 -1.0000000 )


      isym =  5     180 deg rotation - cart. axis [1,1,0]        

 cryst.   s( 5) = (     0         -1          0      )    f =(  0.2500000 )
                  (    -1          0          0      )       (  0.2500000 )
                  (     0          0         -1      )       (  0.2500000 )

 cart.    s( 5) = (  0.0000000  1.0000000  0.0000000 )    f =( -0.2500000 )
                  (  1.0000000  0.0000000  0.0000000 )       (  0.2500000 )
                  (  0.0000000  0.0000000 -1.0000000 )       (  0.2500000 )


      isym =  6     180 deg rotation - cart. axis [1,-1,0]       

 cryst.   s( 6) = (    -1          0          1      )    f =(  0.2500000 )
                  (     0         -1          1      )       (  0.2500000 )
                  (     0          0          1      )       (  0.2500000 )

 cart.    s( 6) = (  0.0000000 -1.0000000  0.0000000 )    f =( -0.2500000 )
                  ( -1.0000000  0.0000000  0.0000000 )       (  0.2500000 )
                  (  0.0000000  0.0000000 -1.0000000 )       (  0.2500000 )


      isym =  7      90 deg rotation - cart. axis [0,0,-1]       

 cryst.   s( 7) = (     0          1          0      )    f =(  0.2500000 )
                  (     0          1         -1      )       (  0.2500000 )
                  (    -1          1          0      )       (  0.2500000 )

 cart.    s( 7) = (  0.0000000  1.0000000  0.0000000 )    f =( -0.2500000 )
                  ( -1.0000000  0.0000000  0.0000000 )       (  0.2500000 )
                  (  0.0000000  0.0000000  1.0000000 )       (  0.2500000 )


      isym =  8      90 deg rotation - cart. axis [0,0,1]        

 cryst.   s( 8) = (     1          0         -1      )    f =(  0.2500000 )
                  (     1          0          0      )       (  0.2500000 )
                  (     1         -1          0      )       (  0.2500000 )

 cart.    s( 8) = (  0.0000000 -1.0000000  0.0000000 )    f =( -0.2500000 )
                  (  1.0000000  0.0000000  0.0000000 )       (  0.2500000 )
                  (  0.0000000  0.0000000  1.0000000 )       (  0.2500000 )


      isym =  9     180 deg rotation - cart. axis [1,0,1]        

 cryst.   s( 9) = (    -1          0          0      )    f =(  0.2500000 )
                  (     0          0         -1      )       (  0.2500000 )
                  (     0         -1          0      )       (  0.2500000 )

 cart.    s( 9) = (  0.0000000  0.0000000  1.0000000 )    f =( -0.2500000 )
                  (  0.0000000 -1.0000000  0.0000000 )       (  0.2500000 )
                  (  1.0000000  0.0000000  0.0000000 )       (  0.2500000 )


      isym = 10     180 deg rotation - cart. axis [-1,0,1]       

 cryst.   s(10) = (     1          0          0      )    f =(  0.2500000 )
                  (     1         -1          0      )       (  0.2500000 )
                  (     1          0         -1      )       (  0.2500000 )

 cart.    s(10) = (  0.0000000  0.0000000 -1.0000000 )    f =( -0.2500000 )
                  (  0.0000000 -1.0000000  0.0000000 )       (  0.2500000 )
                  ( -1.0000000  0.0000000  0.0000000 )       (  0.2500000 )


      isym = 11      90 deg rotation - cart. axis [0,1,0]        

 cryst.   s(11) = (     0          1         -1      )    f =(  0.2500000 )
                  (    -1          1          0      )       (  0.2500000 )
                  (     0          1          0      )       (  0.2500000 )

 cart.    s(11) = (  0.0000000  0.0000000  1.0000000 )    f =( -0.2500000 )
                  (  0.0000000  1.0000000  0.0000000 )       (  0.2500000 )
                  ( -1.0000000  0.0000000  0.0000000 )       (  0.2500000 )


      isym = 12      90 deg rotation - cart. axis [0,-1,0]       

 cryst.   s(12) = (     0         -1          1      )    f =(  0.2500000 )
                  (     0          0          1      )       (  0.2500000 )
                  (    -1          0          1      )       (  0.2500000 )

 cart.    s(12) = (  0.0000000  0.0000000 -1.0000000 )    f =( -0.2500000 )
                  (  0.0000000  1.0000000  0.0000000 )       (  0.2500000 )
                  (  1.0000000  0.0000000  0.0000000 )       (  0.2500000 )


      isym = 13     180 deg rotation - cart. axis [0,1,1]        

 cryst.   s(13) = (    -1          1          0      )    f =(  0.2500000 )
                  (     0          1          0      )       (  0.2500000 )
                  (     0          1         -1      )       (  0.2500000 )

 cart.    s(13) = ( -1.0000000  0.0000000  0.0000000 )    f =( -0.2500000 )
                  (  0.0000000  0.0000000  1.0000000 )       (  0.2500000 )
                  (  0.0000000  1.0000000  0.0000000 )       (  0.2500000 )


      isym = 14     180 deg rotation - cart. axis [0,1,-1]       

 cryst.   s(14) = (     0          0         -1      )    f =(  0.2500000 )
                  (     0         -1          0      )       (  0.2500000 )
                  (    -1          0          0      )       (  0.2500000 )

 cart.    s(14) = ( -1.0000000  0.0000000  0.0000000 )    f =( -0.2500000 )
                  (  0.0000000  0.0000000 -1.0000000 )       (  0.2500000 )
                  (  0.0000000 -1.0000000  0.0000000 )       (  0.2500000 )


      isym = 15      90 deg rotation - cart. axis [-1,0,0]       

 cryst.   s(15) = (     0          0          1      )    f =(  0.2500000 )
                  (    -1          0          1      )       (  0.2500000 )
                  (     0         -1          1      )       (  0.2500000 )

 cart.    s(15) = (  1.0000000  0.0000000  0.0000000 )    f =( -0.2500000 )
                  (  0.0000000  0.0000000  1.0000000 )       (  0.2500000 )
                  (  0.0000000 -1.0000000  0.0000000 )       (  0.2500000 )


      isym = 16      90 deg rotation - cart. axis [1,0,0]        

 cryst.   s(16) = (     1         -1          0      )    f =(  0.2500000 )
                  (     1          0         -1      )       (  0.2500000 )
                  (     1          0          0      )       (  0.2500000 )

 cart.    s(16) = (  1.0000000  0.0000000  0.0000000 )    f =( -0.2500000 )
                  (  0.0000000  0.0000000 -1.0000000 )       (  0.2500000 )
                  (  0.0000000  1.0000000  0.0000000 )       (  0.2500000 )


      isym = 17     120 deg rotation - cart. axis [-1,-1,-1]     

 cryst.   s(17) = (    -1          0          1      )
                  (    -1          1          0      )
                  (    -1          0          0      )

 cart.    s(17) = (  0.0000000  1.0000000  0.0000000 )
                  (  0.0000000  0.0000000  1.0000000 )
                  (  1.0000000  0.0000000  0.0000000 )


      isym = 18     120 deg rotation - cart. axis [-1,1,1]       

 cryst.   s(18) = (     0          1          0      )
                  (     0          0          1      )
                  (     1          0          0      )

 cart.    s(18) = (  0.0000000 -1.0000000  0.0000000 )
                  (  0.0000000  0.0000000  1.0000000 )
                  ( -1.0000000  0.0000000  0.0000000 )


      isym = 19     120 deg rotation - cart. axis [1,1,-1]       

 cryst.   s(19) = (     1          0         -1      )
                  (     0          0         -1      )
                  (     0          1         -1      )

 cart.    s(19) = (  0.0000000  1.0000000  0.0000000 )
                  (  0.0000000  0.0000000 -1.0000000 )
                  ( -1.0000000  0.0000000  0.0000000 )


      isym = 20     120 deg rotation - cart. axis [1,-1,1]       

 cryst.   s(20) = (     0         -1          0      )
                  (     1         -1          0      )
                  (     0         -1          1      )

 cart.    s(20) = (  0.0000000 -1.0000000  0.0000000 )
                  (  0.0000000  0.0000000 -1.0000000 )
                  (  1.0000000  0.0000000  0.0000000 )


      isym = 21     120 deg rotation - cart. axis [1,1,1]        

 cryst.   s(21) = (     0          0         -1      )
                  (     0          1         -1      )
                  (     1          0         -1      )

 cart.    s(21) = (  0.0000000  0.0000000  1.0000000 )
                  (  1.0000000  0.0000000  0.0000000 )
                  (  0.0000000  1.0000000  0.0000000 )


      isym = 22     120 deg rotation - cart. axis [-1,1,-1]      

 cryst.   s(22) = (    -1          1          0      )
                  (    -1          0          0      )
                  (    -1          0          1      )

 cart.    s(22) = (  0.0000000  0.0000000  1.0000000 )
                  ( -1.0000000  0.0000000  0.0000000 )
                  (  0.0000000 -1.0000000  0.0000000 )


      isym = 23     120 deg rotation - cart. axis [1,-1,-1]      

 cryst.   s(23) = (     0          0          1      )
                  (     1          0          0      )
                  (     0          1          0      )

 cart.    s(23) = (  0.0000000  0.0000000 -1.0000000 )
                  ( -1.0000000  0.0000000  0.0000000 )
                  (  0.0000000  1.0000000  0.0000000 )


      isym = 24     120 deg rotation - cart. axis [-1,-1,1]      

 cryst.   s(24) = (     1         -1          0      )
                  (     0         -1          1      )
                  (     0         -1          0      )

 cart.    s(24) = (  0.0000000  0.0000000 -1.0000000 )
                  (  1.0000000  0.0000000  0.0000000 )
                  (  0.0000000 -1.0000000  0.0000000 )


      isym = 25     inversion                                    

 cryst.   s(25) = (    -1          0          0      )    f =(  0.2500000 )
                  (     0         -1          0      )       (  0.2500000 )
                  (     0          0         -1      )       (  0.2500000 )

 cart.    s(25) = ( -1.0000000  0.0000000  0.0000000 )    f =( -0.2500000 )
                  (  0.0000000 -1.0000000  0.0000000 )       (  0.2500000 )
                  (  0.0000000  0.0000000 -1.0000000 )       (  0.2500000 )


      isym = 26     inv. 180 deg rotation - cart. axis [0,0,1]   

 cryst.   s(26) = (     0         -1          1      )    f =(  0.2500000 )
                  (    -1          0          1      )       (  0.2500000 )
                  (     0          0          1      )       (  0.2500000 )

 cart.    s(26) = (  1.0000000  0.0000000  0.0000000 )    f =( -0.2500000 )
                  (  0.0000000  1.0000000  0.0000000 )       (  0.2500000 )
                  (  0.0000000  0.0000000 -1.0000000 )       (  0.2500000 )


      isym = 27     inv. 180 deg rotation - cart. axis [0,1,0]   

 cryst.   s(27) = (     1          0          0      )    f =(  0.2500000 )
                  (     1          0         -1      )       (  0.2500000 )
                  (     1         -1          0      )       (  0.2500000 )

 cart.    s(27) = (  1.0000000  0.0000000  0.0000000 )    f =( -0.2500000 )
                  (  0.0000000 -1.0000000  0.0000000 )       (  0.2500000 )
                  (  0.0000000  0.0000000  1.0000000 )       (  0.2500000 )


      isym = 28     inv. 180 deg rotation - cart. axis [1,0,0]   

 cryst.   s(28) = (     0          1         -1      )    f =(  0.2500000 )
                  (     0          1          0      )       (  0.2500000 )
                  (    -1          1          0      )       (  0.2500000 )

 cart.    s(28) = ( -1.0000000  0.0000000  0.0000000 )    f =( -0.2500000 )
                  (  0.0000000  1.0000000  0.0000000 )       (  0.2500000 )
                  (  0.0000000  0.0000000  1.0000000 )       (  0.2500000 )


      isym = 29     inv. 180 deg rotation - cart. axis [1,1,0]   

 cryst.   s(29) = (     0          1          0      )
                  (     1          0          0      )
                  (     0          0          1      )

 cart.    s(29) = (  0.0000000 -1.0000000  0.0000000 )
                  ( -1.0000000  0.0000000  0.0000000 )
                  (  0.0000000  0.0000000  1.0000000 )


      isym = 30     inv. 180 deg rotation - cart. axis [1,-1,0]  

 cryst.   s(30) = (     1          0         -1      )
                  (     0          1         -1      )
                  (     0          0         -1      )

 cart.    s(30) = (  0.0000000  1.0000000  0.0000000 )
                  (  1.0000000  0.0000000  0.0000000 )
                  (  0.0000000  0.0000000  1.0000000 )


      isym = 31     inv.  90 deg rotation - cart. axis [0,0,-1]  

 cryst.   s(31) = (     0         -1          0      )
                  (     0         -1          1      )
                  (     1         -1          0      )

 cart.    s(31) = (  0.0000000 -1.0000000  0.0000000 )
                  (  1.0000000  0.0000000  0.0000000 )
                  (  0.0000000  0.0000000 -1.0000000 )


      isym = 32     inv.  90 deg rotation - cart. axis [0,0,1]   

 cryst.   s(32) = (    -1          0          1      )
                  (    -1          0          0      )
                  (    -1          1          0      )

 cart.    s(32) = (  0.0000000  1.0000000  0.0000000 )
                  ( -1.0000000  0.0000000  0.0000000 )
                  (  0.0000000  0.0000000 -1.0000000 )


      isym = 33     inv. 180 deg rotation - cart. axis [1,0,1]   

 cryst.   s(33) = (     1          0          0      )
                  (     0          0          1      )
                  (     0          1          0      )

 cart.    s(33) = (  0.0000000  0.0000000 -1.0000000 )
                  (  0.0000000  1.0000000  0.0000000 )
                  ( -1.0000000  0.0000000  0.0000000 )


      isym = 34     inv. 180 deg rotation - cart. axis [-1,0,1]  

 cryst.   s(34) = (    -1          0          0      )
                  (    -1          1          0      )
                  (    -1          0          1      )

 cart.    s(34) = (  0.0000000  0.0000000  1.0000000 )
                  (  0.0000000  1.0000000  0.0000000 )
                  (  1.0000000  0.0000000  0.0000000 )


      isym = 35     inv.  90 deg rotation - cart. axis [0,1,0]   

 cryst.   s(35) = (     0         -1          1      )
                  (     1         -1          0      )
                  (     0         -1          0      )

 cart.    s(35) = (  0.0000000  0.0000000 -1.0000000 )
                  (  0.0000000 -1.0000000  0.0000000 )
                  (  1.0000000  0.0000000  0.0000000 )


      isym = 36     inv.  90 deg rotation - cart. axis [0,-1,0]  

 cryst.   s(36) = (     0          1         -1      )
                  (     0          0         -1      )
                  (     1          0         -1      )

 cart.    s(36) = (  0.0000000  0.0000000  1.0000000 )
                  (  0.0000000 -1.0000000  0.0000000 )
                  ( -1.0000000  0.0000000  0.0000000 )


      isym = 37     inv. 180 deg rotation - cart. axis [0,1,1]   

 cryst.   s(37) = (     1         -1          0      )
                  (     0         -1          0      )
                  (     0         -1          1      )

 cart.    s(37) = (  1.0000000  0.0000000  0.0000000 )
                  (  0.0000000  0.0000000 -1.0000000 )
                  (  0.0000000 -1.0000000  0.0000000 )


      isym = 38     inv. 180 deg rotation - cart. axis [0,1,-1]  

 cryst.   s(38) = (     0          0          1      )
                  (     0          1          0      )
                  (     1          0          0      )

 cart.    s(38) = (  1.0000000  0.0000000  0.0000000 )
                  (  0.0000000  0.0000000  1.0000000 )
                  (  0.0000000  1.0000000  0.0000000 )


      isym = 39     inv.  90 deg rotation - cart. axis [-1,0,0]  

 cryst.   s(39) = (     0          0         -1      )
                  (     1          0         -1      )
                  (     0          1         -1      )

 cart.    s(39) = ( -1.0000000  0.0000000  0.0000000 )
                  (  0.0000000  0.0000000 -1.0000000 )
                  (  0.0000000  1.0000000  0.0000000 )


      isym = 40     inv.  90 deg rotation - cart. axis [1,0,0]   

 cryst.   s(40) = (    -1          1          0      )
                  (    -1          0          1      )
                  (    -1          0          0      )

 cart.    s(40) = ( -1.0000000  0.0000000  0.0000000 )
                  (  0.0000000  0.0000000  1.0000000 )
                  (  0.0000000 -1.0000000  0.0000000 )


      isym = 41     inv. 120 deg rotation - cart. axis [-1,-1,-1]

 cryst.   s(41) = (     1          0         -1      )    f =(  0.2500000 )
                  (     1         -1          0      )       (  0.2500000 )
                  (     1          0          0      )       (  0.2500000 )

 cart.    s(41) = (  0.0000000 -1.0000000  0.0000000 )    f =( -0.2500000 )
                  (  0.0000000  0.0000000 -1.0000000 )       (  0.2500000 )
                  ( -1.0000000  0.0000000  0.0000000 )       (  0.2500000 )


      isym = 42     inv. 120 deg rotation - cart. axis [-1,1,1]  

 cryst.   s(42) = (     0         -1          0      )    f =(  0.2500000 )
                  (     0          0         -1      )       (  0.2500000 )
                  (    -1          0          0      )       (  0.2500000 )

 cart.    s(42) = (  0.0000000  1.0000000  0.0000000 )    f =( -0.2500000 )
                  (  0.0000000  0.0000000 -1.0000000 )       (  0.2500000 )
                  (  1.0000000  0.0000000  0.0000000 )       (  0.2500000 )


      isym = 43     inv. 120 deg rotation - cart. axis [1,1,-1]  

 cryst.   s(43) = (    -1          0          1      )    f =(  0.2500000 )
                  (     0          0          1      )       (  0.2500000 )
                  (     0         -1          1      )       (  0.2500000 )

 cart.    s(43) = (  0.0000000 -1.0000000  0.0000000 )    f =( -0.2500000 )
                  (  0.0000000  0.0000000  1.0000000 )       (  0.2500000 )
                  (  1.0000000  0.0000000  0.0000000 )       (  0.2500000 )


      isym = 44     inv. 120 deg rotation - cart. axis [1,-1,1]  

 cryst.   s(44) = (     0          1          0      )    f =(  0.2500000 )
                  (    -1          1          0      )       (  0.2500000 )
                  (     0          1         -1      )       (  0.2500000 )

 cart.    s(44) = (  0.0000000  1.0000000  0.0000000 )    f =( -0.2500000 )
                  (  0.0000000  0.0000000  1.0000000 )       (  0.2500000 )
                  ( -1.0000000  0.0000000  0.0000000 )       (  0.2500000 )


      isym = 45     inv. 120 deg rotation - cart. axis [1,1,1]   

 cryst.   s(45) = (     0          0          1      )    f =(  0.2500000 )
                  (     0         -1          1      )       (  0.2500000 )
                  (    -1          0          1      )       (  0.2500000 )

 cart.    s(45) = (  0.0000000  0.0000000 -1.0000000 )    f =( -0.2500000 )
                  ( -1.0000000  0.0000000  0.0000000 )       (  0.2500000 )
                  (  0.0000000 -1.0000000  0.0000000 )       (  0.2500000 )


      isym = 46     inv. 120 deg rotation - cart. axis [-1,1,-1] 

 cryst.   s(46) = (     1         -1          0      )    f =(  0.2500000 )
                  (     1          0          0      )       (  0.2500000 )
                  (     1          0         -1      )       (  0.2500000 )

 cart.    s(46) = (  0.0000000  0.0000000 -1.0000000 )    f =( -0.2500000 )
                  (  1.0000000  0.0000000  0.0000000 )       (  0.2500000 )
                  (  0.0000000  1.0000000  0.0000000 )       (  0.2500000 )


      isym = 47     inv. 120 deg rotation - cart. axis [1,-1,-1] 

 cryst.   s(47) = (     0          0         -1      )    f =(  0.2500000 )
                  (    -1          0          0      )       (  0.2500000 )
                  (     0         -1          0      )       (  0.2500000 )

 cart.    s(47) = (  0.0000000  0.0000000  1.0000000 )    f =( -0.2500000 )
                  (  1.0000000  0.0000000  0.0000000 )       (  0.2500000 )
                  (  0.0000000 -1.0000000  0.0000000 )       (  0.2500000 )


      isym = 48     inv. 120 deg rotation - cart. axis [-1,-1,1] 

 cryst.   s(48) = (    -1          1          0      )    f =(  0.2500000 )
                  (     0          1         -1      )       (  0.2500000 )
                  (     0          1          0      )       (  0.2500000 )

 cart.    s(48) = (  0.0000000  0.0000000  1.0000000 )    f =( -0.2500000 )
                  ( -1.0000000  0.0000000  0.0000000 )       (  0.2500000 )
                  (  0.0000000  1.0000000  0.0000000 )       (  0.2500000 )


     point group O_h (m-3m) 
     there are 10 classes
     the character table:

       E     8C3   3C2   6C4   6C2'  i     8S6   3s_h  6S4   6s_d 
A_1g   1.00  1.00  1.00  1.00  1.00  1.00  1.00  1.00  1.00  1.00
A_2g   1.00  1.00  1.00 -1.00 -1.00  1.00  1.00  1.00 -1.00 -1.00
E_g    2.00 -1.00  2.00  0.00  0.00  2.00 -1.00  2.00  0.00  0.00
T_1g   3.00  0.00 -1.00  1.00 -1.00  3.00  0.00 -1.00  1.00 -1.00
T_2g   3.00  0.00 -1.00 -1.00  1.00  3.00  0.00 -1.00 -1.00  1.00
A_1u   1.00  1.00  1.00  1.00  1.00 -1.00 -1.00 -1.00 -1.00 -1.00
A_2u   1.00  1.00  1.00 -1.00 -1.00 -1.00 -1.00 -1.00  1.00  1.00
E_u    2.00 -1.00  2.00  0.00  0.00 -2.00  1.00 -2.00  0.00  0.00
T_1u   3.00  0.00 -1.00  1.00 -1.00 -3.00  0.00  1.00 -1.00  1.00
T_2u   3.00  0.00 -1.00 -1.00  1.00 -3.00  0.00  1.00  1.00 -1.00

     the symmetry operations in each class and the name of the first element:

     E        1
          identity                                               
     8C3     17   19   20   18   24   21   22   23
          120 deg rotation - cart. axis [-1,-1,-1]               
     3C2      2    4    3
          180 deg rotation - cart. axis [0,0,1]                  
     6C4      7    8   15   16   12   11
           90 deg rotation - cart. axis [0,0,-1]                 
     6C2'     5    6   14   13   10    9
          180 deg rotation - cart. axis [1,1,0]                  
     i       25
          inversion                                              
     8S6     41   43   44   42   48   45   46   47
          inv. 120 deg rotation - cart. axis [-1,-1,-1]          
     3s_h    26   28   27
          inv. 180 deg rotation - cart. axis [0,0,1]             
     6S4     31   32   39   40   36   35
          inv.  90 deg rotation - cart. axis [0,0,-1]            
     6s_d    29   30   38   37   34   33
          inv. 180 deg rotation - cart. axis [1,1,0]             

   Cartesian axes

     site n.     atom                  positions (alat units)
         1           Si  tau(   1) = (   0.0000000   0.0000000   0.0000000  )
         2           Si  tau(   2) = (   0.2500000   0.2500000   0.2500000  )

   Crystallographic axes

     site n.     atom                  positions (cryst. coord.)
         1           Si  tau(   1) = (  0.0000000  0.0000000  0.0000000  )
         2           Si  tau(   2) = ( -0.2500000  0.7500000 -0.2500000  )

     number of k points=    91  Gaussian smearing, width (Ry)=  0.0050
                       cart. coord. in units 2pi/alat
        k(    1) = (  -0.5000000  -0.5000000   0.5000000), wk =   0.0219780
        k(    2) = (  -0.4750000  -0.4750000   0.4750000), wk =   0.0219780
        k(    3) = (  -0.4500000  -0.4500000   0.4500000), wk =   0.0219780
        k(    4) = (  -0.4250000  -0.4250000   0.4250000), wk =   0.0219780
        k(    5) = (  -0.4000000  -0.4000000   0.4000000), wk =   0.0219780
        k(    6) = (  -0.3750000  -0.3750000   0.3750000), wk =   0.0219780
        k(    7) = (  -0.3500000  -0.3500000   0.3500000), wk =   0.0219780
        k(    8) = (  -0.3250000  -0.3250000   0.3250000), wk =   0.0219780
        k(    9) = (  -0.3000000  -0.3000000   0.3000000), wk =   0.0219780
        k(   10) = (  -0.2750000  -0.2750000   0.2750000), wk =   0.0219780
        k(   11) = (  -0.2500000  -0.2500000   0.2500000), wk =   0.0219780
        k(   12) = (  -0.2250000  -0.2250000   0.2250000), wk =   0.0219780
        k(   13) = (  -0.2000000  -0.2000000   0.2000000), wk =   0.0219780
        k(   14) = (  -0.1750000  -0.1750000   0.1750000), wk =   0.0219780
        k(   15) = (  -0.1500000  -0.1500000   0.1500000), wk =   0.0219780
        k(   16) = (  -0.1250000  -0.1250000   0.1250000), wk =   0.0219780
        k(   17) = (  -0.1000000  -0.1000000   0.1000000), wk =   0.0219780
        k(   18) = (  -0.0750000  -0.0750000   0.0750000), wk =   0.0219780
        k(   19) = (  -0.0500000  -0.0500000   0.0500000), wk =   0.0219780
        k(   20) = (  -0.0250000  -0.0250000   0.0250000), wk =   0.0219780
        k(   21) = (   0.0000000   0.0000000   0.0000000), wk =   0.0219780
        k(   22) = (   0.0333333   0.0000000   0.0000000), wk =   0.0219780
        k(   23) = (   0.0666667   0.0000000   0.0000000), wk =   0.0219780
        k(   24) = (   0.1000000   0.0000000   0.0000000), wk =   0.0219780
        k(   25) = (   0.1333333   0.0000000   0.0000000), wk =   0.0219780
        k(   26) = (   0.1666667   0.0000000   0.0000000), wk =   0.0219780
        k(   27) = (   0.2000000   0.0000000   0.0000000), wk =   0.0219780
        k(   28) = (   0.2333333   0.0000000   0.0000000), wk =   0.0219780
        k(   29) = (   0.2666667   0.0000000   0.0000000), wk =   0.0219780
        k(   30) = (   0.3000000   0.0000000   0.0000000), wk =   0.0219780
        k(   31) = (   0.3333333   0.0000000   0.0000000), wk =   0.0219780
        k(   32) = (   0.3666667   0.0000000   0.0000000), wk =   0.0219780
        k(   33) = (   0.4000000   0.0000000   0.0000000), wk =   0.0219780
        k(   34) = (   0.4333333   0.0000000   0.0000000), wk =   0.0219780
        k(   35) = (   0.4666667   0.0000000   0.0000000), wk =   0.0219780
        k(   36) = (   0.5000000   0.0000000   0.0000000), wk =   0.0219780
        k(   37) = (   0.5333333   0.0000000   0.0000000), wk =   0.0219780
        k(   38) = (   0.5666667   0.0000000   0.0000000), wk =   0.0219780
        k(   39) = (   0.6000000   0.0000000   0.0000000), wk =   0.0219780
        k(   40) = (   0.6333333   0.0000000   0.0000000), wk =   0.0219780
        k(   41) = (   0.6666667   0.0000000   0.0000000), wk =   0.0219780
        k(   42) = (   0.7000000   0.0000000   0.0000000), wk =   0.0219780
        k(   43) = (   0.7333333   0.0000000   0.0000000), wk =   0.0219780
        k(   44) = (   0.7666667   0.0000000   0.0000000), wk =   0.0219780
        k(   45) = (   0.8000000   0.0000000   0.0000000), wk =   0.0219780
        k(   46) = (   0.8333333   0.0000000   0.0000000), wk =   0.0219780
        k(   47) = (   0.8666667   0.0000000   0.0000000), wk =   0.0219780
        k(   48) = (   0.9000000   0.0000000   0.0000000), wk =   0.0219780
        k(   49) = (   0.9333333   0.0000000   0.0000000), wk =   0.0219780
        k(   50) = (   0.9666667   0.0000000   0.0000000), wk =   0.0219780
        k(   51) = (   1.0000000   0.0000000   0.0000000), wk =   0.0219780
        k(   52) = (   1.0000000   0.0250000   0.0250000), wk =   0.0219780
        k(   53) = (   1.0000000   0.0500000   0.0500000), wk =   0.0219780
        k(   54) = (   1.0000000   0.0750000   0.0750000), wk =   0.0219780
        k(   55) = (   1.0000000   0.1000000   0.1000000), wk =   0.0219780
        k(   56) = (   1.0000000   0.1250000   0.1250000), wk =   0.0219780
        k(   57) = (   1.0000000   0.1500000   0.1500000), wk =   0.0219780
        k(   58) = (   1.0000000   0.1750000   0.1750000), wk =   0.0219780
        k(   59) = (   1.0000000   0.2000000   0.2000000), wk =   0.0219780
        k(   60) = (   1.0000000   0.2250000   0.2250000), wk =   0.0219780
        k(   61) = (   1.0000000   0.2500000   0.2500000), wk =   0.0219780
        k(   62) = (   0.9666667   0.2416667   0.2416667), wk =   0.0219780
        k(   63) = (   0.9333333   0.2333333   0.2333333), wk =   0.0219780
        k(   64) = (   0.9000000   0.2250000   0.2250000), wk =   0.0219780
        k(   65) = (   0.8666667   0.2166667   0.2166667), wk =   0.0219780
        k(   66) = (   0.8333333   0.2083333   0.2083333), wk =   0.0219780
        k(   67) = (   0.8000000   0.2000000   0.2000000), wk =   0.0219780
        k(   68) = (   0.7666667   0.1916667   0.1916667), wk =   0.0219780
        k(   69) = (   0.7333333   0.1833333   0.1833333), wk =   0.0219780
        k(   70) = (   0.7000000   0.1750000   0.1750000), wk =   0.0219780
        k(   71) = (   0.6666667   0.1666667   0.1666667), wk =   0.0219780
        k(   72) = (   0.6333333   0.1583333   0.1583333), wk =   0.0219780
        k(   73) = (   0.6000000   0.1500000   0.1500000), wk =   0.0219780
        k(   74) = (   0.5666667   0.1416667   0.1416667), wk =   0.0219780
        k(   75) = (   0.5333333   0.1333333   0.1333333), wk =   0.0219780
        k(   76) = (   0.5000000   0.1250000   0.1250000), wk =   0.0219780
        k(   77) = (   0.4666667   0.1166667   0.1166667), wk =   0.0219780
        k(   78) = (   0.4333333   0.1083333   0.1083333), wk =   0.0219780
        k(   79) = (   0.4000000   0.1000000   0.1000000), wk =   0.0219780
        k(   80) = (   0.3666667   0.0916667   0.0916667), wk =   0.0219780
        k(   81) = (   0.3333333   0.0833333   0.0833333), wk =   0.0219780
        k(   82) = (   0.3000000   0.0750000   0.0750000), wk =   0.0219780
        k(   83) = (   0.2666667   0.0666667   0.0666667), wk =   0.0219780
        k(   84) = (   0.2333333   0.0583333   0.0583333), wk =   0.0219780
        k(   85) = (   0.2000000   0.0500000   0.0500000), wk =   0.0219780
        k(   86) = (   0.1666667   0.0416667   0.0416667), wk =   0.0219780
        k(   87) = (   0.1333333   0.0333333   0.0333333), wk =   0.0219780
        k(   88) = (   0.1000000   0.0250000   0.0250000), wk =   0.0219780
        k(   89) = (   0.0666667   0.0166667   0.0166667), wk =   0.0219780
        k(   90) = (   0.0333333   0.0083333   0.0083333), wk =   0.0219780
        k(   91) = (   0.0000000   0.0000000   0.0000000), wk =   0.0219780

                       cryst. coord.
        k(    1) = (   0.5000000   0.0000000   0.0000000), wk =   0.0219780
        k(    2) = (   0.4750000   0.0000000   0.0000000), wk =   0.0219780
        k(    3) = (   0.4500000   0.0000000   0.0000000), wk =   0.0219780
        k(    4) = (   0.4250000   0.0000000   0.0000000), wk =   0.0219780
        k(    5) = (   0.4000000   0.0000000   0.0000000), wk =   0.0219780
        k(    6) = (   0.3750000   0.0000000   0.0000000), wk =   0.0219780
        k(    7) = (   0.3500000   0.0000000   0.0000000), wk =   0.0219780
        k(    8) = (   0.3250000   0.0000000   0.0000000), wk =   0.0219780
        k(    9) = (   0.3000000   0.0000000   0.0000000), wk =   0.0219780
        k(   10) = (   0.2750000   0.0000000   0.0000000), wk =   0.0219780
        k(   11) = (   0.2500000   0.0000000   0.0000000), wk =   0.0219780
        k(   12) = (   0.2250000   0.0000000   0.0000000), wk =   0.0219780
        k(   13) = (   0.2000000   0.0000000   0.0000000), wk =   0.0219780
        k(   14) = (   0.1750000   0.0000000   0.0000000), wk =   0.0219780
        k(   15) = (   0.1500000   0.0000000   0.0000000), wk =   0.0219780
        k(   16) = (   0.1250000   0.0000000   0.0000000), wk =   0.0219780
        k(   17) = (   0.1000000   0.0000000   0.0000000), wk =   0.0219780
        k(   18) = (   0.0750000   0.0000000   0.0000000), wk =   0.0219780
        k(   19) = (   0.0500000   0.0000000   0.0000000), wk =   0.0219780
        k(   20) = (   0.0250000   0.0000000   0.0000000), wk =   0.0219780
        k(   21) = (   0.0000000   0.0000000   0.0000000), wk =   0.0219780
        k(   22) = (  -0.0166667   0.0000000  -0.0166667), wk =   0.0219780
        k(   23) = (  -0.0333333   0.0000000  -0.0333333), wk =   0.0219780
        k(   24) = (  -0.0500000   0.0000000  -0.0500000), wk =   0.0219780
        k(   25) = (  -0.0666667   0.0000000  -0.0666667), wk =   0.0219780
        k(   26) = (  -0.0833333   0.0000000  -0.0833333), wk =   0.0219780
        k(   27) = (  -0.1000000   0.0000000  -0.1000000), wk =   0.0219780
        k(   28) = (  -0.1166667   0.0000000  -0.1166667), wk =   0.0219780
        k(   29) = (  -0.1333333   0.0000000  -0.1333333), wk =   0.0219780
        k(   30) = (  -0.1500000   0.0000000  -0.1500000), wk =   0.0219780
        k(   31) = (  -0.1666667   0.0000000  -0.1666667), wk =   0.0219780
        k(   32) = (  -0.1833333   0.0000000  -0.1833333), wk =   0.0219780
        k(   33) = (  -0.2000000   0.0000000  -0.2000000), wk =   0.0219780
        k(   34) = (  -0.2166667   0.0000000  -0.2166667), wk =   0.0219780
        k(   35) = (  -0.2333333   0.0000000  -0.2333333), wk =   0.0219780
        k(   36) = (  -0.2500000   0.0000000  -0.2500000), wk =   0.0219780
        k(   37) = (  -0.2666667   0.0000000  -0.2666667), wk =   0.0219780
        k(   38) = (  -0.2833333   0.0000000  -0.2833333), wk =   0.0219780
        k(   39) = (  -0.3000000   0.0000000  -0.3000000), wk =   0.0219780
        k(   40) = (  -0.3166667   0.0000000  -0.3166667), wk =   0.0219780
        k(   41) = (  -0.3333333   0.0000000  -0.3333333), wk =   0.0219780
        k(   42) = (  -0.3500000   0.0000000  -0.3500000), wk =   0.0219780
        k(   43) = (  -0.3666667   0.0000000  -0.3666667), wk =   0.0219780
        k(   44) = (  -0.3833333   0.0000000  -0.3833333), wk =   0.0219780
        k(   45) = (  -0.4000000   0.0000000  -0.4000000), wk =   0.0219780
        k(   46) = (  -0.4166667   0.0000000  -0.4166667), wk =   0.0219780
        k(   47) = (  -0.4333333   0.0000000  -0.4333333), wk =   0.0219780
        k(   48) = (  -0.4500000   0.0000000  -0.4500000), wk =   0.0219780
        k(   49) = (  -0.4666667   0.0000000  -0.4666667), wk =   0.0219780
        k(   50) = (  -0.4833333   0.0000000  -0.4833333), wk =   0.0219780
        k(   51) = (  -0.5000000   0.0000000  -0.5000000), wk =   0.0219780
        k(   52) = (  -0.4875000   0.0250000  -0.4875000), wk =   0.0219780
        k(   53) = (  -0.4750000   0.0500000  -0.4750000), wk =   0.0219780
        k(   54) = (  -0.4625000   0.0750000  -0.4625000), wk =   0.0219780
        k(   55) = (  -0.4500000   0.1000000  -0.4500000), wk =   0.0219780
        k(   56) = (  -0.4375000   0.1250000  -0.4375000), wk =   0.0219780
        k(   57) = (  -0.4250000   0.1500000  -0.4250000), wk =   0.0219780
        k(   58) = (  -0.4125000   0.1750000  -0.4125000), wk =   0.0219780
        k(   59) = (  -0.4000000   0.2000000  -0.4000000), wk =   0.0219780
        k(   60) = (  -0.3875000   0.2250000  -0.3875000), wk =   0.0219780
        k(   61) = (  -0.3750000   0.2500000  -0.3750000), wk =   0.0219780
        k(   62) = (  -0.3625000   0.2416667  -0.3625000), wk =   0.0219780
        k(   63) = (  -0.3500000   0.2333333  -0.3500000), wk =   0.0219780
        k(   64) = (  -0.3375000   0.2250000  -0.3375000), wk =   0.0219780
        k(   65) = (  -0.3250000   0.2166667  -0.3250000), wk =   0.0219780
        k(   66) = (  -0.3125000   0.2083333  -0.3125000), wk =   0.0219780
        k(   67) = (  -0.3000000   0.2000000  -0.3000000), wk =   0.0219780
        k(   68) = (  -0.2875000   0.1916667  -0.2875000), wk =   0.0219780
        k(   69) = (  -0.2750000   0.1833333  -0.2750000), wk =   0.0219780
        k(   70) = (  -0.2625000   0.1750000  -0.2625000), wk =   0.0219780
        k(   71) = (  -0.2500000   0.1666667  -0.2500000), wk =   0.0219780
        k(   72) = (  -0.2375000   0.1583333  -0.2375000), wk =   0.0219780
        k(   73) = (  -0.2250000   0.1500000  -0.2250000), wk =   0.0219780
        k(   74) = (  -0.2125000   0.1416667  -0.2125000), wk =   0.0219780
        k(   75) = (  -0.2000000   0.1333333  -0.2000000), wk =   0.0219780
        k(   76) = (  -0.1875000   0.1250000  -0.1875000), wk =   0.0219780
        k(   77) = (  -0.1750000   0.1166667  -0.1750000), wk =   0.0219780
        k(   78) = (  -0.1625000   0.1083333  -0.1625000), wk =   0.0219780
        k(   79) = (  -0.1500000   0.1000000  -0.1500000), wk =   0.0219780
        k(   80) = (  -0.1375000   0.0916667  -0.1375000), wk =   0.0219780
        k(   81) = (  -0.1250000   0.0833333  -0.1250000), wk =   0.0219780
        k(   82) = (  -0.1125000   0.0750000  -0.1125000), wk =   0.0219780
        k(   83) = (  -0.1000000   0.0666667  -0.1000000), wk =   0.0219780
        k(   84) = (  -0.0875000   0.0583333  -0.0875000), wk =   0.0219780
        k(   85) = (  -0.0750000   0.0500000  -0.0750000), wk =   0.0219780
        k(   86) = (  -0.0625000   0.0416667  -0.0625000), wk =   0.0219780
        k(   87) = (  -0.0500000   0.0333333  -0.0500000), wk =   0.0219780
        k(   88) = (  -0.0375000   0.0250000  -0.0375000), wk =   0.0219780
        k(   89) = (  -0.0250000   0.0166667  -0.0250000), wk =   0.0219780
        k(   90) = (  -0.0125000   0.0083333  -0.0125000), wk =   0.0219780
        k(   91) = (   0.0000000   0.0000000   0.0000000), wk =   0.0219780

     Dense  grid:    37461 G-vectors     FFT dimensions: (  48,  48,  48)

     Smooth grid:    13323 G-vectors     FFT dimensions: (  36,  36,  36)

     Dynamical RAM for                 wfc:       0.20 MB

     Dynamical RAM for     wfc (w. buffer):       0.20 MB

     Dynamical RAM for           str. fact:       0.57 MB

     Dynamical RAM for           local pot:       0.00 MB

     Dynamical RAM for          nlocal pot:       0.25 MB

     Dynamical RAM for                qrad:       0.28 MB

     Dynamical RAM for          rho,v,vnew:       4.25 MB

     Dynamical RAM for           G-vectors:       2.25 MB

     Dynamical RAM for          h,s,v(r/c):       0.01 MB

     Dynamical RAM for          <psi|beta>:       0.00 MB

     Dynamical RAM for                 psi:       0.40 MB

     Dynamical RAM for                hpsi:       0.40 MB

     Dynamical RAM for      wfcinit/wfcrot:       0.40 MB

     Estimated static dynamical RAM per process >      13.15 MB

     Estimated max dynamical RAM per process >      13.97 MB

     The potential is recalculated from file :
     ./tmp/silicon.save/charge-density

     Starting wfcs are    8 randomized atomic wfcs

     Band Structure Calculation
     Davidson diagonalization with overlap

     Computing kpt #:     1  of    91
     total cpu time spent up to now is        0.2 secs

     Computing kpt #:     2  of    91
     total cpu time spent up to now is        0.2 secs

     Computing kpt #:     3  of    91
     total cpu time spent up to now is        0.3 secs

     Computing kpt #:     4  of    91
     total cpu time spent up to now is        0.4 secs

     Computing kpt #:     5  of    91
     total cpu time spent up to now is        0.5 secs

     Computing kpt #:     6  of    91
     total cpu time spent up to now is        0.5 secs

     Computing kpt #:     7  of    91
     total cpu time spent up to now is        0.6 secs

     Computing kpt #:     8  of    91
     total cpu time spent up to now is        0.7 secs

     Computing kpt #:     9  of    91
     total cpu time spent up to now is        0.8 secs

     Computing kpt #:    10  of    91
     total cpu time spent up to now is        0.9 secs

     Computing kpt #:    11  of    91
     total cpu time spent up to now is        0.9 secs

     Computing kpt #:    12  of    91
     total cpu time spent up to now is        1.0 secs

     Computing kpt #:    13  of    91
     total cpu time spent up to now is        1.1 secs

     Computing kpt #:    14  of    91
     total cpu time spent up to now is        1.1 secs

     Computing kpt #:    15  of    91
     total cpu time spent up to now is        1.2 secs

     Computing kpt #:    16  of    91
     total cpu time spent up to now is        1.2 secs

     Computing kpt #:    17  of    91
     total cpu time spent up to now is        1.3 secs

     Computing kpt #:    18  of    91
     total cpu time spent up to now is        1.3 secs

     Computing kpt #:    19  of    91
     total cpu time spent up to now is        1.4 secs

     Computing kpt #:    20  of    91
     total cpu time spent up to now is        1.5 secs

     Computing kpt #:    21  of    91
     total cpu time spent up to now is        1.5 secs

     Computing kpt #:    22  of    91
     total cpu time spent up to now is        1.6 secs

     Computing kpt #:    23  of    91
     total cpu time spent up to now is        1.6 secs

     Computing kpt #:    24  of    91
     total cpu time spent up to now is        1.7 secs

     Computing kpt #:    25  of    91
     total cpu time spent up to now is        1.7 secs

     Computing kpt #:    26  of    91
     total cpu time spent up to now is        1.8 secs

     Computing kpt #:    27  of    91
     total cpu time spent up to now is        1.8 secs

     Computing kpt #:    28  of    91
     total cpu time spent up to now is        1.9 secs

     Computing kpt #:    29  of    91
     total cpu time spent up to now is        2.0 secs

     Computing kpt #:    30  of    91
     total cpu time spent up to now is        2.0 secs

     Computing kpt #:    31  of    91
     total cpu time spent up to now is        2.1 secs

     Computing kpt #:    32  of    91
     total cpu time spent up to now is        2.2 secs

     Computing kpt #:    33  of    91
     total cpu time spent up to now is        2.2 secs

     Computing kpt #:    34  of    91
     total cpu time spent up to now is        2.3 secs

     Computing kpt #:    35  of    91
     total cpu time spent up to now is        2.4 secs

     Computing kpt #:    36  of    91
     total cpu time spent up to now is        2.5 secs

     Computing kpt #:    37  of    91
     total cpu time spent up to now is        2.5 secs

     Computing kpt #:    38  of    91
     total cpu time spent up to now is        2.6 secs

     Computing kpt #:    39  of    91
     total cpu time spent up to now is        2.7 secs

     Computing kpt #:    40  of    91
     total cpu time spent up to now is        2.7 secs

     Computing kpt #:    41  of    91
     total cpu time spent up to now is        2.8 secs

     Computing kpt #:    42  of    91
     total cpu time spent up to now is        2.9 secs

     Computing kpt #:    43  of    91
     total cpu time spent up to now is        2.9 secs

     Computing kpt #:    44  of    91
     total cpu time spent up to now is        3.0 secs

     Computing kpt #:    45  of    91
     total cpu time spent up to now is        3.0 secs

     Computing kpt #:    46  of    91
     total cpu time spent up to now is        3.1 secs

     Computing kpt #:    47  of    91
     total cpu time spent up to now is        3.2 secs

     Computing kpt #:    48  of    91
     total cpu time spent up to now is        3.2 secs

     Computing kpt #:    49  of    91
     total cpu time spent up to now is        3.3 secs

     Computing kpt #:    50  of    91
     total cpu time spent up to now is        3.4 secs

     Computing kpt #:    51  of    91
     total cpu time spent up to now is        3.4 secs

     Computing kpt #:    52  of    91
     total cpu time spent up to now is        3.5 secs

     Computing kpt #:    53  of    91
     total cpu time spent up to now is        3.6 secs

     Computing kpt #:    54  of    91
     total cpu time spent up to now is        3.6 secs

     Computing kpt #:    55  of    91
     total cpu time spent up to now is        3.7 secs

     Computing kpt #:    56  of    91
     total cpu time spent up to now is        3.8 secs

     Computing kpt #:    57  of    91
     total cpu time spent up to now is        3.9 secs

     Computing kpt #:    58  of    91
     total cpu time spent up to now is        4.0 secs

     Computing kpt #:    59  of    91
     total cpu time spent up to now is        4.0 secs

     Computing kpt #:    60  of    91
     total cpu time spent up to now is        4.1 secs

     Computing kpt #:    61  of    91
     total cpu time spent up to now is        4.3 secs

     Computing kpt #:    62  of    91
     total cpu time spent up to now is        4.3 secs

     Computing kpt #:    63  of    91
     total cpu time spent up to now is        4.4 secs

     Computing kpt #:    64  of    91
     total cpu time spent up to now is        4.5 secs

     Computing kpt #:    65  of    91
     total cpu time spent up to now is        4.5 secs

     Computing kpt #:    66  of    91
     total cpu time spent up to now is        4.6 secs

     Computing kpt #:    67  of    91
     total cpu time spent up to now is        4.6 secs

     Computing kpt #:    68  of    91
     total cpu time spent up to now is        4.7 secs

     Computing kpt #:    69  of    91
     total cpu time spent up to now is        4.8 secs

     Computing kpt #:    70  of    91
     total cpu time spent up to now is        4.8 secs

     Computing kpt #:    71  of    91
     total cpu time spent up to now is        4.9 secs

     Computing kpt #:    72  of    91
     total cpu time spent up to now is        4.9 secs

     Computing kpt #:    73  of    91
     total cpu time spent up to now is        5.0 secs

     Computing kpt #:    74  of    91
     total cpu time spent up to now is        5.1 secs

     Computing kpt #:    75  of    91
     total cpu time spent up to now is        5.1 secs

     Computing kpt #:    76  of    91
     total cpu time spent up to now is        5.2 secs

     Computing kpt #:    77  of    91
     total cpu time spent up to now is        5.3 secs

     Computing kpt #:    78  of    91
     total cpu time spent up to now is        5.3 secs

     Computing kpt #:    79  of    91
     total cpu time spent up to now is        5.4 secs

     Computing kpt #:    80  of    91
     total cpu time spent up to now is        5.5 secs

     Computing kpt #:    81  of    91
     total cpu time spent up to now is        5.6 secs

     Computing kpt #:    82  of    91
     total cpu time spent up to now is        5.7 secs

     Computing kpt #:    83  of    91
     total cpu time spent up to now is        5.8 secs

     Computing kpt #:    84  of    91
     total cpu time spent up to now is        5.8 secs

     Computing kpt #:    85  of    91
     total cpu time spent up to now is        5.9 secs

     Computing kpt #:    86  of    91
     total cpu time spent up to now is        6.0 secs

     Computing kpt #:    87  of    91
     total cpu time spent up to now is        6.0 secs

     Computing kpt #:    88  of    91
     total cpu time spent up to now is        6.1 secs

     Computing kpt #:    89  of    91
     total cpu time spent up to now is        6.2 secs

     Computing kpt #:    90  of    91
     total cpu time spent up to now is        6.2 secs

     Computing kpt #:    91  of    91
     total cpu time spent up to now is        6.3 secs

     ethr =  1.25E-08,  avg # of iterations = 22.0

     total cpu time spent up to now is        6.3 secs

     End of band structure calculation

          k =-0.5000-0.5000 0.5000 (  1676 PWs)   bands (ev):

    -3.4750  -0.8361   4.8203   4.8203   7.5100   9.3524   9.3524  13.7141

          k =-0.4750-0.4750 0.4750 (  1670 PWs)   bands (ev):

    -3.5094  -0.7866   4.8247   4.8247   7.5151   9.3573   9.3573  13.7216

          k =-0.4500-0.4500 0.4500 (  1673 PWs)   bands (ev):

    -3.6052  -0.6453   4.8380   4.8380   7.5304   9.3716   9.3716  13.7431

          k =-0.4250-0.4250 0.4250 (  1661 PWs)   bands (ev):

    -3.7459  -0.4290   4.8602   4.8602   7.5558   9.3941   9.3941  13.7761

          k =-0.4000-0.4000 0.4000 (  1646 PWs)   bands (ev):

    -3.9141  -0.1553   4.8911   4.8911   7.5912   9.4229   9.4229  13.8146

          k =-0.3750-0.3750 0.3750 (  1640 PWs)   bands (ev):

    -4.0960   0.1619   4.9308   4.9308   7.6364   9.4551   9.4551  13.8454

          k =-0.3500-0.3500 0.3500 (  1634 PWs)   bands (ev):

    -4.2822   0.5127   4.9791   4.9791   7.6911   9.4866   9.4866  13.8390

          k =-0.3250-0.3250 0.3250 (  1634 PWs)   bands (ev):

    -4.4663   0.8903   5.0358   5.0358   7.7550   9.5122   9.5122  13.7406

          k =-0.3000-0.3000 0.3000 (  1637 PWs)   bands (ev):

    -4.6441   1.2898   5.1006   5.1006   7.8275   9.5256   9.5256  13.5059

          k =-0.2750-0.2750 0.2750 (  1642 PWs)   bands (ev):

    -4.8127   1.7075   5.1732   5.1732   7.9079   9.5201   9.5201  13.1633

          k =-0.2500-0.2500 0.2500 (  1642 PWs)   bands (ev):

    -4.9702   2.1405   5.2530   5.2530   7.9952   9.4898   9.4898  12.7643

          k =-0.2250-0.2250 0.2250 (  1657 PWs)   bands (ev):

    -5.1152   2.5859   5.3389   5.3389   8.0881   9.4308   9.4308  12.3384

          k =-0.2000-0.2000 0.2000 (  1654 PWs)   bands (ev):

    -5.2467   3.0408   5.4300   5.4300   8.1846   9.3436   9.3436  11.8989

          k =-0.1750-0.1750 0.1750 (  1654 PWs)   bands (ev):

    -5.3640   3.5020   5.5246   5.5246   8.2825   9.2324   9.2324  11.4531

          k =-0.1500-0.1500 0.1500 (  1654 PWs)   bands (ev):

    -5.4664   3.9650   5.6203   5.6203   8.3781   9.1053   9.1053  11.0066

          k =-0.1250-0.1250 0.1250 (  1660 PWs)   bands (ev):

    -5.5537   4.4237   5.7143   5.7143   8.4670   8.9719   8.9719  10.5663

          k =-0.1000-0.1000 0.1000 (  1663 PWs)   bands (ev):

    -5.6255   4.8687   5.8026   5.8026   8.5424   8.8425   8.8425  10.1440

          k =-0.0750-0.0750 0.0750 (  1654 PWs)   bands (ev):

    -5.6815   5.2843   5.8803   5.8803   8.5941   8.7275   8.7275   9.7603

          k =-0.0500-0.0500 0.0500 (  1654 PWs)   bands (ev):

    -5.7217   5.6431   5.9418   5.9418   8.6082   8.6365   8.6365   9.4518

          k =-0.0250-0.0250 0.0250 (  1648 PWs)   bands (ev):

    -5.7458   5.8996   5.9817   5.9817   8.5780   8.5780   8.5811   9.2630

          k = 0.0000 0.0000 0.0000 (  1639 PWs)   bands (ev):

    -5.7538   5.9955   5.9955   5.9955   8.5577   8.5577   8.5577   9.2044

          k = 0.0333 0.0000 0.0000 (  1643 PWs)   bands (ev):

    -5.7491   5.9618   5.9751   5.9751   8.5460   8.5840   8.5840   9.2374

          k = 0.0667 0.0000 0.0000 (  1659 PWs)   bands (ev):

    -5.7348   5.8647   5.9165   5.9165   8.5115   8.6603   8.6603   9.3318

          k = 0.1000 0.0000 0.0000 (  1659 PWs)   bands (ev):

    -5.7109   5.7146   5.8258   5.8258   8.4559   8.7803   8.7803   9.4756

          k = 0.1333 0.0000 0.0000 (  1659 PWs)   bands (ev):

    -5.6776   5.5236   5.7109   5.7109   8.3819   8.9362   8.9362   9.6529

          k = 0.1667 0.0000 0.0000 (  1663 PWs)   bands (ev):

    -5.6347   5.3024   5.5792   5.5792   8.2926   9.1205   9.1205   9.8466

          k = 0.2000 0.0000 0.0000 (  1651 PWs)   bands (ev):

    -5.5824   5.0597   5.4366   5.4366   8.1914   9.3271   9.3271  10.0370

          k = 0.2333 0.0000 0.0000 (  1659 PWs)   bands (ev):

    -5.5207   4.8017   5.2879   5.2879   8.0813   9.5512   9.5512  10.1995

          k = 0.2667 0.0000 0.0000 (  1655 PWs)   bands (ev):

    -5.4495   4.5327   5.1365   5.1365   7.9654   9.7893   9.7893  10.3030

          k = 0.3000 0.0000 0.0000 (  1655 PWs)   bands (ev):

    -5.3691   4.2558   4.9849   4.9849   7.8463  10.0385  10.0385  10.3180

          k = 0.3333 0.0000 0.0000 (  1647 PWs)   bands (ev):

    -5.2793   3.9733   4.8352   4.8352   7.7261  10.2368  10.2969  10.2969

          k = 0.3667 0.0000 0.0000 (  1648 PWs)   bands (ev):

    -5.1803   3.6868   4.6886   4.6886   7.6069  10.0788  10.5630  10.5630

          k = 0.4000 0.0000 0.0000 (  1656 PWs)   bands (ev):

    -5.0721   3.3972   4.5464   4.5464   7.4903   9.8725  10.8354  10.8354

          k = 0.4333 0.0000 0.0000 (  1640 PWs)   bands (ev):

    -4.9548   3.1057   4.4092   4.4092   7.3776   9.6407  11.1133  11.1133

          k = 0.4667 0.0000 0.0000 (  1636 PWs)   bands (ev):

    -4.8285   2.8127   4.2779   4.2779   7.2700   9.3979  11.3959  11.3959

          k = 0.5000 0.0000 0.0000 (  1636 PWs)   bands (ev):

    -4.6933   2.5190   4.1530   4.1530   7.1685   9.1532  11.6826  11.6826

          k = 0.5333 0.0000 0.0000 (  1636 PWs)   bands (ev):

    -4.5493   2.2249   4.0348   4.0348   7.0739   8.9122  11.9729  11.9729

          k = 0.5667 0.0000 0.0000 (  1652 PWs)   bands (ev):

    -4.3966   1.9310   3.9237   3.9237   6.9870   8.6784  12.2664  12.2664

          k = 0.6000 0.0000 0.0000 (  1652 PWs)   bands (ev):

    -4.2354   1.6375   3.8200   3.8200   6.9085   8.4541  12.5630  12.5630

          k = 0.6333 0.0000 0.0000 (  1652 PWs)   bands (ev):

    -4.0656   1.3450   3.7239   3.7239   6.8388   8.2411  12.8622  12.8622

          k = 0.6667 0.0000 0.0000 (  1644 PWs)   bands (ev):

    -3.8876   1.0539   3.6356   3.6356   6.7785   8.0402  13.1640  13.1640

          k = 0.7000 0.0000 0.0000 (  1660 PWs)   bands (ev):

    -3.7015   0.7645   3.5554   3.5554   6.7280   7.8523  13.4680  13.4680

          k = 0.7333 0.0000 0.0000 (  1660 PWs)   bands (ev):

    -3.5074   0.4772   3.4832   3.4832   6.6877   7.6777  13.7741  13.7741

          k = 0.7667 0.0000 0.0000 (  1652 PWs)   bands (ev):

    -3.3055   0.1925   3.4194   3.4194   6.6580   7.5168  14.0819  14.0819

          k = 0.8000 0.0000 0.0000 (  1652 PWs)   bands (ev):

    -3.0961  -0.0891   3.3638   3.3638   6.6393   7.3696  14.3907  14.3907

          k = 0.8333 0.0000 0.0000 (  1652 PWs)   bands (ev):

    -2.8793  -0.3674   3.3167   3.3167   6.6318   7.2363  14.6994  14.6994

          k = 0.8667 0.0000 0.0000 (  1644 PWs)   bands (ev):

    -2.6554  -0.6419   3.2780   3.2780   6.6358   7.1167  15.0060  15.0060

          k = 0.9000 0.0000 0.0000 (  1656 PWs)   bands (ev):

    -2.4246  -0.9121   3.2479   3.2479   6.6517   7.0107  15.3060  15.3060

          k = 0.9333 0.0000 0.0000 (  1660 PWs)   bands (ev):

    -2.1872  -1.1778   3.2264   3.2264   6.6797   6.9183  15.5884  15.5884

          k = 0.9667 0.0000 0.0000 (  1660 PWs)   bands (ev):

    -1.9435  -1.4385   3.2135   3.2135   6.7202   6.8392  15.8220  15.8220

          k = 1.0000 0.0000 0.0000 (  1660 PWs)   bands (ev):

    -1.6938  -1.6938   3.2092   3.2092   6.7732   6.7732  15.9250  15.9250

          k = 1.0000 0.0250 0.0250 (  1660 PWs)   bands (ev):

    -1.6961  -1.6880   3.1733   3.2135   6.7782   6.8270  15.8676  15.8927

          k = 1.0000 0.0500 0.0500 (  1662 PWs)   bands (ev):

    -1.7033  -1.6706   3.0728   3.2263   6.7930   6.9815  15.7102  15.8001

          k = 1.0000 0.0750 0.0750 (  1656 PWs)   bands (ev):

    -1.7161  -1.6415   2.9241   3.2478   6.8177   7.2207  15.4830  15.6576

          k = 1.0000 0.1000 0.1000 (  1648 PWs)   bands (ev):

    -1.7358  -1.6009   2.7467   3.2777   6.8521   7.5265  15.2134  15.4778

          k = 1.0000 0.1250 0.1250 (  1652 PWs)   bands (ev):

    -1.7639  -1.5486   2.5576   3.3159   6.8962   7.8835  14.9200  15.2716

          k = 1.0000 0.1500 0.1500 (  1656 PWs)   bands (ev):

    -1.8027  -1.4848   2.3702   3.3624   6.9498   8.2797  14.6142  15.0478

          k = 1.0000 0.1750 0.1750 (  1654 PWs)   bands (ev):

    -1.8542  -1.4094   2.1948   3.4169   7.0127   8.7069  14.3031  14.8130

          k = 1.0000 0.2000 0.2000 (  1650 PWs)   bands (ev):

    -1.9205  -1.3226   2.0392   3.4794   7.0847   9.1589  13.9913  14.5720

          k = 1.0000 0.2250 0.2250 (  1662 PWs)   bands (ev):

    -2.0036  -1.2242   1.9092   3.5494   7.1656   9.6309  13.6816  14.2368

          k = 1.0000 0.2500 0.2500 (  1666 PWs)   bands (ev):

    -2.1042  -1.1143   1.8085   3.6268   7.2549  10.1189  13.3761  13.9146

          k = 0.9667 0.2417 0.2417 (  1660 PWs)   bands (ev):

    -2.1076  -1.1160   1.8520   3.6041   7.2298   9.9604  13.4047  13.7679

          k = 0.9333 0.2333 0.2333 (  1658 PWs)   bands (ev):

    -2.1908  -1.0414   1.9229   3.5902   7.2168   9.8152  13.3277  13.5498

          k = 0.9000 0.2250 0.2250 (  1648 PWs)   bands (ev):

    -2.3327  -0.9078   2.0172   3.5851   7.2157   9.6842  13.2024  13.3291

          k = 0.8667 0.2167 0.2167 (  1650 PWs)   bands (ev):

    -2.5081  -0.7369   2.1311   3.5891   7.2259   9.5683  13.0582  13.1088

          k = 0.8333 0.2083 0.2083 (  1652 PWs)   bands (ev):

    -2.7009  -0.5424   2.2616   3.6022   7.2470   9.4685  12.8898  12.9069

          k = 0.8000 0.2000 0.2000 (  1649 PWs)   bands (ev):

    -2.9018  -0.3313   2.4063   3.6244   7.2779   9.3862  12.6725  12.7536

          k = 0.7667 0.1917 0.1917 (  1650 PWs)   bands (ev):

    -3.1053  -0.1076   2.5626   3.6559   7.3174   9.3227  12.4570  12.6001

          k = 0.7333 0.1833 0.1833 (  1650 PWs)   bands (ev):

    -3.3080   0.1268   2.7288   3.6965   7.3640   9.2798  12.2436  12.4467

          k = 0.7000 0.1750 0.1750 (  1653 PWs)   bands (ev):

    -3.5076   0.3705   2.9031   3.7463   7.4159   9.2593  12.0325  12.2930

          k = 0.6667 0.1667 0.1667 (  1652 PWs)   bands (ev):

    -3.7025   0.6227   3.0838   3.8053   7.4711   9.2630  11.8240  12.1380

          k = 0.6333 0.1583 0.1583 (  1653 PWs)   bands (ev):

    -3.8915   0.8829   3.2694   3.8733   7.5277   9.2922  11.6185  11.9804

          k = 0.6000 0.1500 0.1500 (  1655 PWs)   bands (ev):

    -4.0736   1.1505   3.4586   3.9503   7.5842   9.3475  11.4168  11.8185

          k = 0.5667 0.1417 0.1417 (  1655 PWs)   bands (ev):

    -4.2482   1.4253   3.6501   4.0360   7.6395   9.4282  11.2202  11.6506

          k = 0.5333 0.1333 0.1333 (  1652 PWs)   bands (ev):

    -4.4147   1.7070   3.8426   4.1304   7.6934   9.5313  11.0308  11.4751

          k = 0.5000 0.1250 0.1250 (  1653 PWs)   bands (ev):

    -4.5726   1.9951   4.0349   4.2331   7.7465   9.6503  10.8532  11.2906

          k = 0.4667 0.1167 0.1167 (  1645 PWs)   bands (ev):

    -4.7215   2.2893   4.2259   4.3439   7.7995   9.7717  10.6972  11.0962

          k = 0.4333 0.1083 0.1083 (  1649 PWs)   bands (ev):

    -4.8611   2.5891   4.4145   4.4623   7.8536   9.8667  10.5861  10.8919

          k = 0.4000 0.1000 0.1000 (  1653 PWs)   bands (ev):

    -4.9912   2.8940   4.5879   4.5996   7.9099   9.8875  10.5592  10.6783

          k = 0.3667 0.0917 0.0917 (  1647 PWs)   bands (ev):

    -5.1115   3.2033   4.7200   4.7799   7.9692   9.8172  10.4568  10.6193

          k = 0.3333 0.0833 0.0833 (  1650 PWs)   bands (ev):

    -5.2219   3.5160   4.8578   4.9544   8.0318   9.6940  10.2298  10.7035

          k = 0.3000 0.0750 0.0750 (  1657 PWs)   bands (ev):

    -5.3222   3.8310   5.0002   5.1216   8.0976   9.5514   9.9998  10.7411

          k = 0.2667 0.0667 0.0667 (  1652 PWs)   bands (ev):

    -5.4123   4.1465   5.1458   5.2803   8.1661   9.4041   9.7704  10.6802

          k = 0.2333 0.0583 0.0583 (  1654 PWs)   bands (ev):

    -5.4920   4.4603   5.2927   5.4287   8.2359   9.2591   9.5451  10.5148

          k = 0.2000 0.0500 0.0500 (  1659 PWs)   bands (ev):

    -5.5612   4.7690   5.4382   5.5650   8.3054   9.1197   9.3283  10.2806

          k = 0.1667 0.0417 0.0417 (  1663 PWs)   bands (ev):

    -5.6200   5.0676   5.5787   5.6870   8.3719   8.9881   9.1250  10.0187

          k = 0.1333 0.0333 0.0333 (  1661 PWs)   bands (ev):

    -5.6681   5.3487   5.7096   5.7924   8.4327   8.8655   8.9412   9.7608

          k = 0.1000 0.0250 0.0250 (  1659 PWs)   bands (ev):

    -5.7056   5.6008   5.8245   5.8785   8.4846   8.7533   8.7842   9.5317

          k = 0.0667 0.0167 0.0167 (  1655 PWs)   bands (ev):

    -5.7324   5.8072   5.9156   5.9425   8.5243   8.6557   8.6624   9.3534

          k = 0.0333 0.0083 0.0083 (  1644 PWs)   bands (ev):

    -5.7485   5.9460   5.9749   5.9821   8.5492   8.5846   8.5846   9.2419

          k = 0.0000 0.0000 0.0000 (  1639 PWs)   bands (ev):

    -5.7538   5.9955   5.9955   5.9955   8.5577   8.5577   8.5577   9.2044

     Writing all to output data dir ./tmp/silicon.save/

     init_run     :      0.06s CPU      0.07s WALL (       1 calls)
     electrons    :      6.15s CPU      6.17s WALL (       1 calls)

     Called by init_run:
     wfcinit      :      0.00s CPU      0.00s WALL (       1 calls)
     wfcinit:atom :      0.01s CPU      0.01s WALL (      91 calls)
     wfcinit:wfcr :      0.31s CPU      0.32s WALL (      91 calls)
     potinit      :      0.02s CPU      0.03s WALL (       1 calls)
     hinit0       :      0.01s CPU      0.02s WALL (       1 calls)

     Called by electrons:
     c_bands      :      6.15s CPU      6.17s WALL (       1 calls)
     v_of_rho     :      0.02s CPU      0.03s WALL (       1 calls)
     v_h          :      0.00s CPU      0.00s WALL (       1 calls)
     v_xc         :      0.02s CPU      0.03s WALL (       1 calls)

     Called by c_bands:
     init_us_2    :      0.01s CPU      0.01s WALL (      91 calls)
     init_us_2:cp :      0.01s CPU      0.01s WALL (      91 calls)
     cegterg      :      5.77s CPU      5.78s WALL (     135 calls)

     Called by sum_band:

     Called by *egterg:
     cdiaghg      :      0.08s CPU      0.08s WALL (    2094 calls)
     cegterg:over :      0.41s CPU      0.41s WALL (    2003 calls)
     cegterg:upda :      0.19s CPU      0.19s WALL (    2003 calls)
     cegterg:last :      0.36s CPU      0.36s WALL (    1389 calls)
     h_psi        :      4.93s CPU      4.94s WALL (    2229 calls)
     g_psi        :      0.03s CPU      0.03s WALL (    2003 calls)

     Called by h_psi:
     h_psi:calbec :      0.16s CPU      0.16s WALL (    2229 calls)
     vloc_psi     :      4.63s CPU      4.64s WALL (    2229 calls)
     add_vuspsi   :      0.13s CPU      0.13s WALL (    2229 calls)

     General routines
     calbec       :      0.16s CPU      0.16s WALL (    2229 calls)
     fft          :      0.01s CPU      0.01s WALL (      11 calls)
     ffts         :      0.00s CPU      0.00s WALL (       1 calls)
     fftw         :      3.91s CPU      3.92s WALL (   23970 calls)
     interpolate  :      0.00s CPU      0.00s WALL (       1 calls)
     davcio       :      0.00s CPU      0.01s WALL (     182 calls)


     PWSCF        :      6.24s CPU      6.29s WALL


   This run was terminated on:  11:20:42  13Oct2023            

=------------------------------------------------------------------------------=
   JOB DONE.
=------------------------------------------------------------------------------=
