
     Program PWSCF v.6.7MaX starts on 12Oct2023 at 13:18:43 

     This program is part of the open-source Quantum ESPRESSO suite
     for quantum simulation of materials; please cite
         "P. Giannozzi et al., J. Phys.:Condens. Matter 21 395502 (2009);
         "P. Giannozzi et al., J. Phys.:Condens. Matter 29 465901 (2017);
          URL http://www.quantum-espresso.org", 
     in publications or presentations arising from this work. More details at
     http://www.quantum-espresso.org/quote

     Parallel version (MPI), running on     1 processors

     MPI processes distributed on     1 nodes
     Waiting for input...
     Reading input from standard input

     Current dimensions of program PWSCF are:
     Max number of different atomic species (ntypx) = 10
     Max number of k-points (npk) =  40000
     Max angular momentum in pseudopotentials (lmaxx) =  3
     file N.pbe-n-kjpaw_psl.1.0.0.UPF: wavefunction(s)  2S renormalized

     gamma-point specific algorithms are used

     Subspace diagonalization in iterative solution of the eigenvalue problem:
     a serial algorithm will be used

     Message from routine setup:
     using ibrav=0 with symmetry is DISCOURAGED, use correct ibrav instead

     G-vector sticks info
     --------------------
     sticks:   dense  smooth     PW     G-vecs:    dense   smooth      PW
     Sum        6385    6385   1597               384587   384587   47937



     bravais-lattice index     =            0
     lattice parameter (alat)  =      28.3459  a.u.
     unit-cell volume          =   22775.6289 (a.u.)^3
     number of atoms/cell      =            2
     number of atomic types    =            1
     number of electrons       =        10.00
     number of Kohn-Sham states=            5
     kinetic-energy cutoff     =      25.0000  Ry
     charge density cutoff     =     100.0000  Ry
     scf convergence threshold =      1.0E-06
     mixing beta               =       0.6000
     number of iterations used =            8  plain     mixing
     Exchange-correlation= SLA  PW   PBX  PBC
                           (   1   4   3   4   0   0   0)

     celldm(1)=  28.345892  celldm(2)=   0.000000  celldm(3)=   0.000000
     celldm(4)=   0.000000  celldm(5)=   0.000000  celldm(6)=   0.000000

     crystal axes: (cart. coord. in units of alat)
               a(1) = (   1.000000   0.000000   0.000000 )  
               a(2) = (   0.000000   1.000000   0.000000 )  
               a(3) = (   0.000000   0.000000   1.000000 )  

     reciprocal axes: (cart. coord. in units 2 pi/alat)
               b(1) = (  1.000000  0.000000  0.000000 )  
               b(2) = (  0.000000  1.000000  0.000000 )  
               b(3) = (  0.000000  0.000000  1.000000 )  


     PseudoPot. # 1 for N  read from file:
     ././N.pbe-n-kjpaw_psl.1.0.0.UPF
     MD5 check sum: 14c48229446f9f2d411169a3abcbc3fa
     Pseudo is Projector augmented-wave + core cor, Zval =  5.0
     Generated using &quot;atomic&quot; code by A. Dal Corso  v.6.3
     Shape of augmentation charge: PSQ
     Using radial grid of 1085 points,  4 beta functions with: 
                l(1) =   0
                l(2) =   0
                l(3) =   1
                l(4) =   1
     Q(r) pseudized with 0 coefficients 


     atomic species   valence    mass     pseudopotential
        N              5.00    14.00700     N ( 1.00)

      2 Sym. Ops. (no inversion) found



   Cartesian axes

     site n.     atom                  positions (alat units)
         1           N   tau(   1) = (   0.5133333   0.5000000   0.6154700  )
         2           N   tau(   2) = (   0.4373333   0.5000000   0.6154700  )

     number of k points=     1
                       cart. coord. in units 2pi/alat
        k(    1) = (   0.0000000   0.0000000   0.0000000), wk =   2.0000000

     Dense  grid:   192294 G-vectors     FFT dimensions: (  96,  96,  96)

     Estimated max dynamical RAM per process >     280.68 MB

     Check: negative core charge=   -0.000032

     Initial potential from superposition of free atoms

     starting charge    9.99999, renormalised to   10.00000

     negative rho (up, down):  1.929E-01 0.000E+00
     Starting wfcs are    8 randomized atomic wfcs
     Checking if some PAW data can be deallocated... 

     total cpu time spent up to now is        1.3 secs

     Self-consistent Calculation

     iteration #  1     ecut=    25.00 Ry     beta= 0.60
     Davidson diagonalization with overlap
     ethr =  1.00E-02,  avg # of iterations =  2.0

     Threshold (ethr) on eigenvalues was too large:
     Diagonalizing with lowered threshold

     Davidson diagonalization with overlap
     ethr =  9.39E-04,  avg # of iterations =  1.0

     negative rho (up, down):  2.350E-01 0.000E+00

     total cpu time spent up to now is        3.3 secs

     total energy              =     -56.26864997 Ry
     estimated scf accuracy    <       0.09773975 Ry

     iteration #  2     ecut=    25.00 Ry     beta= 0.60
     Davidson diagonalization with overlap
     ethr =  9.77E-04,  avg # of iterations =  2.0

     negative rho (up, down):  2.492E-01 0.000E+00

     total cpu time spent up to now is        4.7 secs

     total energy              =     -56.27753296 Ry
     estimated scf accuracy    <       0.00660933 Ry

     iteration #  3     ecut=    25.00 Ry     beta= 0.60
     Davidson diagonalization with overlap
     ethr =  6.61E-05,  avg # of iterations =  1.0

     negative rho (up, down):  2.565E-01 0.000E+00

     total cpu time spent up to now is        5.9 secs

     total energy              =     -56.27759854 Ry
     estimated scf accuracy    <       0.00051382 Ry

     iteration #  4     ecut=    25.00 Ry     beta= 0.60
     Davidson diagonalization with overlap
     ethr =  5.14E-06,  avg # of iterations =  2.0

     negative rho (up, down):  2.575E-01 0.000E+00

     total cpu time spent up to now is        7.2 secs

     total energy              =     -56.27762908 Ry
     estimated scf accuracy    <       0.00000546 Ry

     iteration #  5     ecut=    25.00 Ry     beta= 0.60
     Davidson diagonalization with overlap
     ethr =  5.46E-08,  avg # of iterations =  2.0

     negative rho (up, down):  2.574E-01 0.000E+00

     total cpu time spent up to now is        8.6 secs

     total energy              =     -56.27763044 Ry
     estimated scf accuracy    <       0.00000157 Ry

     iteration #  6     ecut=    25.00 Ry     beta= 0.60
     Davidson diagonalization with overlap
     ethr =  1.57E-08,  avg # of iterations =  2.0

     negative rho (up, down):  2.574E-01 0.000E+00

     total cpu time spent up to now is        9.8 secs

     End of self-consistent calculation

          k = 0.0000 0.0000 0.0000 ( 23969 PWs)   bands (ev):

   -27.9544 -13.9335 -11.2476 -11.2472 -10.0723

     highest occupied level (ev):   -10.0723

!    total energy              =     -56.27763040 Ry

     total all-electron energy =      -218.875227 Ry
     estimated scf accuracy    <       0.00000017 Ry

     The total energy is the sum of the following terms:
     one-electron contribution =     -87.33382739 Ry
     hartree contribution      =      44.81720696 Ry
     xc contribution           =     -10.99311061 Ry
     ewald contribution        =      13.22149402 Ry
     one-center paw contrib.   =     -15.98939338 Ry

     convergence has been achieved in   6 iterations

     Writing output data file ././n2.save/

     init_run     :      1.18s CPU      1.29s WALL (       1 calls)
     electrons    :      8.03s CPU      8.48s WALL (       1 calls)

     Called by init_run:
     wfcinit      :      0.17s CPU      0.18s WALL (       1 calls)
     potinit      :      0.61s CPU      0.66s WALL (       1 calls)
     hinit0       :      0.20s CPU      0.22s WALL (       1 calls)

     Called by electrons:
     c_bands      :      2.14s CPU      2.14s WALL (       7 calls)
     sum_band     :      1.64s CPU      1.79s WALL (       7 calls)
     v_of_rho     :      3.23s CPU      3.43s WALL (       7 calls)
     newd         :      0.81s CPU      0.97s WALL (       7 calls)
     PAW_pot      :      0.52s CPU      0.52s WALL (       7 calls)
     mix_rho      :      0.30s CPU      0.31s WALL (       7 calls)

     Called by c_bands:
     init_us_2    :      0.07s CPU      0.07s WALL (      15 calls)
     regterg      :      2.05s CPU      2.05s WALL (       7 calls)

     Called by *egterg:
     rdiaghg      :      0.00s CPU      0.00s WALL (      18 calls)
     h_psi        :      1.94s CPU      1.94s WALL (      20 calls)
     s_psi        :      0.07s CPU      0.07s WALL (      20 calls)
     g_psi        :      0.01s CPU      0.01s WALL (      12 calls)

     Called by h_psi:
     h_psi:calbec :      0.08s CPU      0.08s WALL (      20 calls)
     vloc_psi     :      1.78s CPU      1.78s WALL (      20 calls)
     add_vuspsi   :      0.07s CPU      0.07s WALL (      20 calls)

     General routines
     calbec       :      0.11s CPU      0.11s WALL (      27 calls)
     fft          :      1.84s CPU      1.87s WALL (      64 calls)
     ffts         :      0.18s CPU      0.18s WALL (       7 calls)
     fftw         :      1.92s CPU      1.92s WALL (     133 calls)

     Parallel routines

     PWSCF        :      9.28s CPU      9.85s WALL


   This run was terminated on:  13:18:53  12Oct2023            

=------------------------------------------------------------------------------=
   JOB DONE.
=------------------------------------------------------------------------------=
