
     Program PWSCF v.6.7MaX starts on 12Oct2023 at 13:18:53 

     This program is part of the open-source Quantum ESPRESSO suite
     for quantum simulation of materials; please cite
         "P. Giannozzi et al., J. Phys.:Condens. Matter 21 395502 (2009);
         "P. Giannozzi et al., J. Phys.:Condens. Matter 29 465901 (2017);
          URL http://www.quantum-espresso.org", 
     in publications or presentations arising from this work. More details at
     http://www.quantum-espresso.org/quote

     Parallel version (MPI), running on     1 processors

     MPI processes distributed on     1 nodes
     Waiting for input...
     Reading input from standard input

     Current dimensions of program PWSCF are:
     Max number of different atomic species (ntypx) = 10
     Max number of k-points (npk) =  40000
     Max angular momentum in pseudopotentials (lmaxx) =  3
     file N.pbe-n-kjpaw_psl.1.0.0.UPF: wavefunction(s)  2S renormalized

     gamma-point specific algorithms are used

     Subspace diagonalization in iterative solution of the eigenvalue problem:
     a serial algorithm will be used

     Message from routine setup:
     using ibrav=0 with symmetry is DISCOURAGED, use correct ibrav instead

     G-vector sticks info
     --------------------
     sticks:   dense  smooth     PW     G-vecs:    dense   smooth      PW
     Sum        7685    7685   1917               505887   505887   63077



     bravais-lattice index     =            0
     lattice parameter (alat)  =      28.3459  a.u.
     unit-cell volume          =   22775.6289 (a.u.)^3
     number of atoms/cell      =            2
     number of atomic types    =            1
     number of electrons       =        10.00
     number of Kohn-Sham states=            5
     kinetic-energy cutoff     =      30.0000  Ry
     charge density cutoff     =     120.0000  Ry
     scf convergence threshold =      1.0E-06
     mixing beta               =       0.6000
     number of iterations used =            8  plain     mixing
     Exchange-correlation= SLA  PW   PBX  PBC
                           (   1   4   3   4   0   0   0)

     celldm(1)=  28.345892  celldm(2)=   0.000000  celldm(3)=   0.000000
     celldm(4)=   0.000000  celldm(5)=   0.000000  celldm(6)=   0.000000

     crystal axes: (cart. coord. in units of alat)
               a(1) = (   1.000000   0.000000   0.000000 )  
               a(2) = (   0.000000   1.000000   0.000000 )  
               a(3) = (   0.000000   0.000000   1.000000 )  

     reciprocal axes: (cart. coord. in units 2 pi/alat)
               b(1) = (  1.000000  0.000000  0.000000 )  
               b(2) = (  0.000000  1.000000  0.000000 )  
               b(3) = (  0.000000  0.000000  1.000000 )  


     PseudoPot. # 1 for N  read from file:
     ././N.pbe-n-kjpaw_psl.1.0.0.UPF
     MD5 check sum: 14c48229446f9f2d411169a3abcbc3fa
     Pseudo is Projector augmented-wave + core cor, Zval =  5.0
     Generated using &quot;atomic&quot; code by A. Dal Corso  v.6.3
     Shape of augmentation charge: PSQ
     Using radial grid of 1085 points,  4 beta functions with: 
                l(1) =   0
                l(2) =   0
                l(3) =   1
                l(4) =   1
     Q(r) pseudized with 0 coefficients 


     atomic species   valence    mass     pseudopotential
        N              5.00    14.00700     N ( 1.00)

      2 Sym. Ops. (no inversion) found



   Cartesian axes

     site n.     atom                  positions (alat units)
         1           N   tau(   1) = (   0.5133333   0.5000000   0.6154700  )
         2           N   tau(   2) = (   0.4373333   0.5000000   0.6154700  )

     number of k points=     1
                       cart. coord. in units 2pi/alat
        k(    1) = (   0.0000000   0.0000000   0.0000000), wk =   2.0000000

     Dense  grid:   252944 G-vectors     FFT dimensions: ( 100, 100, 100)

     Estimated max dynamical RAM per process >     357.90 MB

     Check: negative core charge=   -0.000015

     Initial potential from superposition of free atoms

     starting charge    9.99999, renormalised to   10.00000

     negative rho (up, down):  9.893E-02 0.000E+00
     Starting wfcs are    8 randomized atomic wfcs
     Checking if some PAW data can be deallocated... 

     total cpu time spent up to now is        1.5 secs

     Self-consistent Calculation

     iteration #  1     ecut=    30.00 Ry     beta= 0.60
     Davidson diagonalization with overlap
     ethr =  1.00E-02,  avg # of iterations =  2.0

     negative rho (up, down):  1.243E-01 0.000E+00

     total cpu time spent up to now is        3.0 secs

     total energy              =     -56.37150314 Ry
     estimated scf accuracy    <       0.10588337 Ry

     iteration #  2     ecut=    30.00 Ry     beta= 0.60
     Davidson diagonalization with overlap
     ethr =  1.06E-03,  avg # of iterations =  2.0

     negative rho (up, down):  1.339E-01 0.000E+00

     total cpu time spent up to now is        4.3 secs

     total energy              =     -56.38210948 Ry
     estimated scf accuracy    <       0.00559610 Ry

     iteration #  3     ecut=    30.00 Ry     beta= 0.60
     Davidson diagonalization with overlap
     ethr =  5.60E-05,  avg # of iterations =  1.0

     negative rho (up, down):  1.388E-01 0.000E+00

     total cpu time spent up to now is        5.7 secs

     total energy              =     -56.38213262 Ry
     estimated scf accuracy    <       0.00044853 Ry

     iteration #  4     ecut=    30.00 Ry     beta= 0.60
     Davidson diagonalization with overlap
     ethr =  4.49E-06,  avg # of iterations =  2.0

     negative rho (up, down):  1.394E-01 0.000E+00

     total cpu time spent up to now is        6.9 secs

     total energy              =     -56.38216386 Ry
     estimated scf accuracy    <       0.00000403 Ry

     iteration #  5     ecut=    30.00 Ry     beta= 0.60
     Davidson diagonalization with overlap
     ethr =  4.03E-08,  avg # of iterations =  2.0

     negative rho (up, down):  1.394E-01 0.000E+00

     total cpu time spent up to now is        8.3 secs

     total energy              =     -56.38216473 Ry
     estimated scf accuracy    <       0.00000155 Ry

     iteration #  6     ecut=    30.00 Ry     beta= 0.60
     Davidson diagonalization with overlap
     ethr =  1.55E-08,  avg # of iterations =  2.0

     negative rho (up, down):  1.394E-01 0.000E+00

     total cpu time spent up to now is        9.5 secs

     End of self-consistent calculation

          k = 0.0000 0.0000 0.0000 ( 31539 PWs)   bands (ev):

   -27.7978 -13.7768 -11.2716 -11.2702 -10.1285

     highest occupied level (ev):   -10.1285

!    total energy              =     -56.38216490 Ry

     total all-electron energy =      -218.979761 Ry
     estimated scf accuracy    <       0.00000004 Ry

     The total energy is the sum of the following terms:
     one-electron contribution =     -87.55242623 Ry
     hartree contribution      =      44.96554618 Ry
     xc contribution           =     -11.02451819 Ry
     ewald contribution        =      13.22149404 Ry
     one-center paw contrib.   =     -15.99226070 Ry

     convergence has been achieved in   6 iterations

     Writing output data file ././n2.save/

     init_run     :      1.33s CPU      1.48s WALL (       1 calls)
     electrons    :      7.58s CPU      7.98s WALL (       1 calls)

     Called by init_run:
     wfcinit      :      0.22s CPU      0.22s WALL (       1 calls)
     potinit      :      0.63s CPU      0.66s WALL (       1 calls)
     hinit0       :      0.22s CPU      0.28s WALL (       1 calls)

     Called by electrons:
     c_bands      :      1.77s CPU      1.78s WALL (       6 calls)
     sum_band     :      1.44s CPU      1.58s WALL (       6 calls)
     v_of_rho     :      3.25s CPU      3.37s WALL (       7 calls)
     newd         :      0.93s CPU      1.15s WALL (       7 calls)
     PAW_pot      :      0.56s CPU      0.56s WALL (       7 calls)
     mix_rho      :      0.25s CPU      0.25s WALL (       6 calls)

     Called by c_bands:
     init_us_2    :      0.07s CPU      0.07s WALL (      13 calls)
     regterg      :      1.66s CPU      1.66s WALL (       6 calls)

     Called by *egterg:
     rdiaghg      :      0.00s CPU      0.00s WALL (      17 calls)
     h_psi        :      1.53s CPU      1.53s WALL (      18 calls)
     s_psi        :      0.08s CPU      0.08s WALL (      18 calls)
     g_psi        :      0.01s CPU      0.01s WALL (      11 calls)

     Called by h_psi:
     h_psi:calbec :      0.10s CPU      0.10s WALL (      18 calls)
     vloc_psi     :      1.34s CPU      1.34s WALL (      18 calls)
     add_vuspsi   :      0.08s CPU      0.08s WALL (      18 calls)

     General routines
     calbec       :      0.13s CPU      0.13s WALL (      24 calls)
     fft          :      1.19s CPU      1.20s WALL (      63 calls)
     ffts         :      0.09s CPU      0.09s WALL (       6 calls)
     fftw         :      1.36s CPU      1.36s WALL (     118 calls)

     Parallel routines

     PWSCF        :      8.99s CPU      9.55s WALL


   This run was terminated on:  13:19: 3  12Oct2023            

=------------------------------------------------------------------------------=
   JOB DONE.
=------------------------------------------------------------------------------=
