
     Program PWSCF v.6.7MaX starts on 12Oct2023 at 13:19:17 

     This program is part of the open-source Quantum ESPRESSO suite
     for quantum simulation of materials; please cite
         "P. Giannozzi et al., J. Phys.:Condens. Matter 21 395502 (2009);
         "P. Giannozzi et al., J. Phys.:Condens. Matter 29 465901 (2017);
          URL http://www.quantum-espresso.org", 
     in publications or presentations arising from this work. More details at
     http://www.quantum-espresso.org/quote

     Parallel version (MPI), running on     1 processors

     MPI processes distributed on     1 nodes
     Waiting for input...
     Reading input from standard input

     Current dimensions of program PWSCF are:
     Max number of different atomic species (ntypx) = 10
     Max number of k-points (npk) =  40000
     Max angular momentum in pseudopotentials (lmaxx) =  3
     file N.pbe-n-kjpaw_psl.1.0.0.UPF: wavefunction(s)  2S renormalized

     gamma-point specific algorithms are used

     Subspace diagonalization in iterative solution of the eigenvalue problem:
     a serial algorithm will be used

     Message from routine setup:
     using ibrav=0 with symmetry is DISCOURAGED, use correct ibrav instead

     G-vector sticks info
     --------------------
     sticks:   dense  smooth     PW     G-vecs:    dense   smooth      PW
     Sum       10229   10229   2561               778439   778439   97521



     bravais-lattice index     =            0
     lattice parameter (alat)  =      28.3459  a.u.
     unit-cell volume          =   22775.6289 (a.u.)^3
     number of atoms/cell      =            2
     number of atomic types    =            1
     number of electrons       =        10.00
     number of Kohn-Sham states=            5
     kinetic-energy cutoff     =      40.0000  Ry
     charge density cutoff     =     160.0000  Ry
     scf convergence threshold =      1.0E-06
     mixing beta               =       0.6000
     number of iterations used =            8  plain     mixing
     Exchange-correlation= SLA  PW   PBX  PBC
                           (   1   4   3   4   0   0   0)

     celldm(1)=  28.345892  celldm(2)=   0.000000  celldm(3)=   0.000000
     celldm(4)=   0.000000  celldm(5)=   0.000000  celldm(6)=   0.000000

     crystal axes: (cart. coord. in units of alat)
               a(1) = (   1.000000   0.000000   0.000000 )  
               a(2) = (   0.000000   1.000000   0.000000 )  
               a(3) = (   0.000000   0.000000   1.000000 )  

     reciprocal axes: (cart. coord. in units 2 pi/alat)
               b(1) = (  1.000000  0.000000  0.000000 )  
               b(2) = (  0.000000  1.000000  0.000000 )  
               b(3) = (  0.000000  0.000000  1.000000 )  


     PseudoPot. # 1 for N  read from file:
     ././N.pbe-n-kjpaw_psl.1.0.0.UPF
     MD5 check sum: 14c48229446f9f2d411169a3abcbc3fa
     Pseudo is Projector augmented-wave + core cor, Zval =  5.0
     Generated using &quot;atomic&quot; code by A. Dal Corso  v.6.3
     Shape of augmentation charge: PSQ
     Using radial grid of 1085 points,  4 beta functions with: 
                l(1) =   0
                l(2) =   0
                l(3) =   1
                l(4) =   1
     Q(r) pseudized with 0 coefficients 


     atomic species   valence    mass     pseudopotential
        N              5.00    14.00700     N ( 1.00)

      2 Sym. Ops. (no inversion) found



   Cartesian axes

     site n.     atom                  positions (alat units)
         1           N   tau(   1) = (   0.5133333   0.5000000   0.6154700  )
         2           N   tau(   2) = (   0.4373333   0.5000000   0.6154700  )

     number of k points=     1
                       cart. coord. in units 2pi/alat
        k(    1) = (   0.0000000   0.0000000   0.0000000), wk =   2.0000000

     Dense  grid:   389220 G-vectors     FFT dimensions: ( 120, 120, 120)

     Estimated max dynamical RAM per process >     563.63 MB

     Initial potential from superposition of free atoms

     starting charge    9.99999, renormalised to   10.00000

     negative rho (up, down):  1.728E-02 0.000E+00
     Starting wfcs are    8 randomized atomic wfcs
     Checking if some PAW data can be deallocated... 

     total cpu time spent up to now is        2.3 secs

     Self-consistent Calculation

     iteration #  1     ecut=    40.00 Ry     beta= 0.60
     Davidson diagonalization with overlap
     ethr =  1.00E-02,  avg # of iterations =  2.0

     negative rho (up, down):  2.535E-02 0.000E+00

     total cpu time spent up to now is        5.2 secs

     total energy              =     -56.41445855 Ry
     estimated scf accuracy    <       0.11287069 Ry

     iteration #  2     ecut=    40.00 Ry     beta= 0.60
     Davidson diagonalization with overlap
     ethr =  1.13E-03,  avg # of iterations =  2.0

     negative rho (up, down):  3.095E-02 0.000E+00

     total cpu time spent up to now is        7.6 secs

     total energy              =     -56.42691791 Ry
     estimated scf accuracy    <       0.00548430 Ry

     iteration #  3     ecut=    40.00 Ry     beta= 0.60
     Davidson diagonalization with overlap
     ethr =  5.48E-05,  avg # of iterations =  1.0

     negative rho (up, down):  3.401E-02 0.000E+00

     total cpu time spent up to now is        9.6 secs

     total energy              =     -56.42692976 Ry
     estimated scf accuracy    <       0.00047632 Ry

     iteration #  4     ecut=    40.00 Ry     beta= 0.60
     Davidson diagonalization with overlap
     ethr =  4.76E-06,  avg # of iterations =  2.0

     negative rho (up, down):  3.426E-02 0.000E+00

     total cpu time spent up to now is       11.7 secs

     total energy              =     -56.42696094 Ry
     estimated scf accuracy    <       0.00000417 Ry

     iteration #  5     ecut=    40.00 Ry     beta= 0.60
     Davidson diagonalization with overlap
     ethr =  4.17E-08,  avg # of iterations =  2.0

     negative rho (up, down):  3.428E-02 0.000E+00

     total cpu time spent up to now is       14.2 secs

     total energy              =     -56.42696193 Ry
     estimated scf accuracy    <       0.00000173 Ry

     iteration #  6     ecut=    40.00 Ry     beta= 0.60
     Davidson diagonalization with overlap
     ethr =  1.73E-08,  avg # of iterations =  2.0

     negative rho (up, down):  3.431E-02 0.000E+00

     total cpu time spent up to now is       16.5 secs

     End of self-consistent calculation

          k = 0.0000 0.0000 0.0000 ( 48761 PWs)   bands (ev):

   -27.7273 -13.7163 -11.2823 -11.2822 -10.1431

     highest occupied level (ev):   -10.1431

!    total energy              =     -56.42696210 Ry

     total all-electron energy =      -219.024558 Ry
     estimated scf accuracy    <       0.00000006 Ry

     The total energy is the sum of the following terms:
     one-electron contribution =     -87.63996016 Ry
     hartree contribution      =      45.02374882 Ry
     xc contribution           =     -11.03966174 Ry
     ewald contribution        =      13.22149403 Ry
     one-center paw contrib.   =     -15.99258305 Ry

     convergence has been achieved in   6 iterations

     Writing output data file ././n2.save/

     init_run     :      2.06s CPU      2.26s WALL (       1 calls)
     electrons    :     13.22s CPU     14.24s WALL (       1 calls)

     Called by init_run:
     wfcinit      :      0.51s CPU      0.51s WALL (       1 calls)
     potinit      :      0.85s CPU      0.94s WALL (       1 calls)
     hinit0       :      0.30s CPU      0.33s WALL (       1 calls)

     Called by electrons:
     c_bands      :      3.79s CPU      3.82s WALL (       6 calls)
     sum_band     :      2.64s CPU      3.07s WALL (       6 calls)
     v_of_rho     :      5.20s CPU      5.44s WALL (       7 calls)
     newd         :      1.42s CPU      1.82s WALL (       7 calls)
     PAW_pot      :      0.53s CPU      0.53s WALL (       7 calls)
     mix_rho      :      0.48s CPU      0.51s WALL (       6 calls)

     Called by c_bands:
     init_us_2    :      0.11s CPU      0.11s WALL (      13 calls)
     regterg      :      3.62s CPU      3.65s WALL (       6 calls)

     Called by *egterg:
     rdiaghg      :      0.00s CPU      0.00s WALL (      17 calls)
     h_psi        :      3.50s CPU      3.52s WALL (      18 calls)
     s_psi        :      0.16s CPU      0.16s WALL (      18 calls)
     g_psi        :      0.02s CPU      0.02s WALL (      11 calls)

     Called by h_psi:
     h_psi:calbec :      0.20s CPU      0.20s WALL (      18 calls)
     vloc_psi     :      3.13s CPU      3.15s WALL (      18 calls)
     add_vuspsi   :      0.17s CPU      0.17s WALL (      18 calls)

     General routines
     calbec       :      0.26s CPU      0.26s WALL (      24 calls)
     fft          :      2.51s CPU      2.55s WALL (      63 calls)
     ffts         :      0.21s CPU      0.21s WALL (       6 calls)
     fftw         :      3.21s CPU      3.26s WALL (     118 calls)

     Parallel routines

     PWSCF        :     15.33s CPU     16.59s WALL


   This run was terminated on:  13:19:33  12Oct2023            

=------------------------------------------------------------------------------=
   JOB DONE.
=------------------------------------------------------------------------------=
