
     Program PWSCF v.6.7MaX starts on 12Oct2023 at 10:15:10 

     This program is part of the open-source Quantum ESPRESSO suite
     for quantum simulation of materials; please cite
         "P. Giannozzi et al., J. Phys.:Condens. Matter 21 395502 (2009);
         "P. Giannozzi et al., J. Phys.:Condens. Matter 29 465901 (2017);
          URL http://www.quantum-espresso.org", 
     in publications or presentations arising from this work. More details at
     http://www.quantum-espresso.org/quote

     Parallel version (MPI), running on     1 processors

     MPI processes distributed on     1 nodes
     Waiting for input...
     Reading input from standard input

     Current dimensions of program PWSCF are:
     Max number of different atomic species (ntypx) = 10
     Max number of k-points (npk) =  40000
     Max angular momentum in pseudopotentials (lmaxx) =  3
     file N.pbe-n-kjpaw_psl.1.0.0.UPF: wavefunction(s)  2S renormalized

     gamma-point specific algorithms are used

     Subspace diagonalization in iterative solution of the eigenvalue problem:
     a serial algorithm will be used

     Message from routine setup:
     using ibrav=0 with symmetry is DISCOURAGED, use correct ibrav instead

     G-vector sticks info
     --------------------
     sticks:   dense  smooth     PW     G-vecs:    dense   smooth      PW
     Sum        5129    5129   1281               274961   274961   34457



     bravais-lattice index     =            0
     lattice parameter (alat)  =      28.3459  a.u.
     unit-cell volume          =   22775.6289 (a.u.)^3
     number of atoms/cell      =            2
     number of atomic types    =            1
     number of electrons       =        10.00
     number of Kohn-Sham states=            9
     kinetic-energy cutoff     =      20.0000  Ry
     charge density cutoff     =      80.0000  Ry
     scf convergence threshold =      1.0E-07
     mixing beta               =       0.7000
     number of iterations used =            8  local-TF  mixing
     energy convergence thresh.=      1.0E-04
     force convergence thresh. =      1.0E-03
     Exchange-correlation= SLA  PW   PBX  PBC
                           (   1   4   3   4   0   0   0)
     nstep                     =           50


     celldm(1)=  28.345892  celldm(2)=   0.000000  celldm(3)=   0.000000
     celldm(4)=   0.000000  celldm(5)=   0.000000  celldm(6)=   0.000000

     crystal axes: (cart. coord. in units of alat)
               a(1) = (   1.000000   0.000000   0.000000 )  
               a(2) = (   0.000000   1.000000   0.000000 )  
               a(3) = (   0.000000   0.000000   1.000000 )  

     reciprocal axes: (cart. coord. in units 2 pi/alat)
               b(1) = (  1.000000  0.000000  0.000000 )  
               b(2) = (  0.000000  1.000000  0.000000 )  
               b(3) = (  0.000000  0.000000  1.000000 )  


     PseudoPot. # 1 for N  read from file:
     /usr/share/espresso/pseudo/N.pbe-n-kjpaw_psl.1.0.0.UPF
     MD5 check sum: 14c48229446f9f2d411169a3abcbc3fa
     Pseudo is Projector augmented-wave + core cor, Zval =  5.0
     Generated using &quot;atomic&quot; code by A. Dal Corso  v.6.3
     Shape of augmentation charge: PSQ
     Using radial grid of 1085 points,  4 beta functions with: 
                l(1) =   0
                l(2) =   0
                l(3) =   1
                l(4) =   1
     Q(r) pseudized with 0 coefficients 


     atomic species   valence    mass     pseudopotential
        N              5.00    14.00700     N ( 1.00)

      2 Sym. Ops. (no inversion) found



   Cartesian axes

     site n.     atom                  positions (alat units)
         1           N   tau(   1) = (   0.5133333   0.5000000   0.6154700  )
         2           N   tau(   2) = (   0.4373333   0.5000000   0.6154700  )

     number of k points=     1  Gaussian smearing, width (Ry)=  0.0500
                       cart. coord. in units 2pi/alat
        k(    1) = (   0.0000000   0.0000000   0.0000000), wk =   2.0000000

     Dense  grid:   137481 G-vectors     FFT dimensions: (  81,  81,  81)

     Estimated max dynamical RAM per process >     200.07 MB

     Check: negative core charge=   -0.000061

     Initial potential from superposition of free atoms

     starting charge    9.99999, renormalised to   10.00000

     negative rho (up, down):  3.569E-01 0.000E+00
     Starting wfcs are    8 randomized atomic wfcs +    1 random wfcs
     Checking if some PAW data can be deallocated... 

     total cpu time spent up to now is        0.9 secs

     Self-consistent Calculation

     iteration #  1     ecut=    20.00 Ry     beta= 0.70
     Davidson diagonalization with overlap
     ethr =  1.00E-02,  avg # of iterations =  7.0

     Threshold (ethr) on eigenvalues was too large:
     Diagonalizing with lowered threshold

     Davidson diagonalization with overlap
     ethr =  8.44E-04,  avg # of iterations =  2.0

     negative rho (up, down):  3.489E-01 0.000E+00

     total cpu time spent up to now is        3.1 secs

     total energy              =     -56.00877540 Ry
     estimated scf accuracy    <       0.08542658 Ry

     iteration #  2     ecut=    20.00 Ry     beta= 0.70
     Davidson diagonalization with overlap
     ethr =  8.54E-04,  avg # of iterations =  1.0

     negative rho (up, down):  3.445E-01 0.000E+00

     total cpu time spent up to now is        5.0 secs

     total energy              =     -56.00320175 Ry
     estimated scf accuracy    <       0.01584280 Ry

     iteration #  3     ecut=    20.00 Ry     beta= 0.70
     Davidson diagonalization with overlap
     ethr =  1.58E-04,  avg # of iterations = 11.0

     negative rho (up, down):  3.447E-01 0.000E+00

     total cpu time spent up to now is        6.8 secs

     total energy              =     -56.00400252 Ry
     estimated scf accuracy    <       0.00071684 Ry

     iteration #  4     ecut=    20.00 Ry     beta= 0.70
     Davidson diagonalization with overlap
     ethr =  7.17E-06,  avg # of iterations =  5.0

     negative rho (up, down):  3.509E-01 0.000E+00

     total cpu time spent up to now is        8.5 secs

     total energy              =     -56.00388920 Ry
     estimated scf accuracy    <       0.00027694 Ry

     iteration #  5     ecut=    20.00 Ry     beta= 0.70
     Davidson diagonalization with overlap
     ethr =  2.77E-06,  avg # of iterations =  2.0

     negative rho (up, down):  3.574E-01 0.000E+00

     total cpu time spent up to now is       10.0 secs

     total energy              =     -56.00387032 Ry
     estimated scf accuracy    <       0.00010190 Ry

     iteration #  6     ecut=    20.00 Ry     beta= 0.70
     Davidson diagonalization with overlap
     ethr =  1.02E-06,  avg # of iterations =  2.0

     negative rho (up, down):  3.622E-01 0.000E+00

     total cpu time spent up to now is       11.3 secs

     total energy              =     -56.00385147 Ry
     estimated scf accuracy    <       0.00004300 Ry

     iteration #  7     ecut=    20.00 Ry     beta= 0.70
     Davidson diagonalization with overlap
     ethr =  4.30E-07,  avg # of iterations =  1.0

     negative rho (up, down):  3.599E-01 0.000E+00

     total cpu time spent up to now is       12.7 secs

     total energy              =     -56.00383649 Ry
     estimated scf accuracy    <       0.00001441 Ry

     iteration #  8     ecut=    20.00 Ry     beta= 0.70
     Davidson diagonalization with overlap
     ethr =  1.44E-07,  avg # of iterations =  1.0

     negative rho (up, down):  3.605E-01 0.000E+00

     total cpu time spent up to now is       14.1 secs

     total energy              =     -56.00383702 Ry
     estimated scf accuracy    <       0.00000504 Ry

     iteration #  9     ecut=    20.00 Ry     beta= 0.70
     Davidson diagonalization with overlap
     ethr =  5.04E-08,  avg # of iterations =  1.0

     negative rho (up, down):  3.616E-01 0.000E+00

     total cpu time spent up to now is       15.5 secs

     total energy              =     -56.00383961 Ry
     estimated scf accuracy    <       0.00000173 Ry

     iteration # 10     ecut=    20.00 Ry     beta= 0.70
     Davidson diagonalization with overlap
     ethr =  1.73E-08,  avg # of iterations =  1.0

     negative rho (up, down):  3.612E-01 0.000E+00

     total cpu time spent up to now is       17.0 secs

     total energy              =     -56.00383771 Ry
     estimated scf accuracy    <       0.00000033 Ry

     iteration # 11     ecut=    20.00 Ry     beta= 0.70
     Davidson diagonalization with overlap
     ethr =  3.32E-09,  avg # of iterations =  1.0

     negative rho (up, down):  3.610E-01 0.000E+00

     total cpu time spent up to now is       18.4 secs

     total energy              =     -56.00383697 Ry
     estimated scf accuracy    <       0.00000011 Ry

     iteration # 12     ecut=    20.00 Ry     beta= 0.70
     Davidson diagonalization with overlap
     ethr =  1.05E-09,  avg # of iterations =  1.0

     negative rho (up, down):  3.611E-01 0.000E+00

     total cpu time spent up to now is       19.3 secs

     End of self-consistent calculation

          k = 0.0000 0.0000 0.0000 ( 17229 PWs)   bands (ev):

   -28.3298 -14.3230 -11.1685 -11.1647  -9.9445  -2.2057  -2.2017  -1.7343
    -1.0677

     the Fermi energy is    -6.2660 ev

!    total energy              =     -56.00383737 Ry

     total all-electron energy =      -218.601434 Ry
     estimated scf accuracy    <       0.00000001 Ry
     smearing contrib. (-TS)   =      -0.00000000 Ry
     internal energy E=F+TS    =     -56.00383737 Ry

     The total energy is F=E-TS. E is the sum of the following terms:
     one-electron contribution =     -86.77503108 Ry
     hartree contribution      =      44.44966815 Ry
     xc contribution           =     -10.91930920 Ry
     ewald contribution        =      13.22149404 Ry
     one-center paw contrib.   =     -15.98065928 Ry

     convergence has been achieved in  12 iterations

     negative rho (up, down):  3.611E-01 0.000E+00

     Forces acting on atoms (cartesian axes, Ry/au):

     atom    1 type  1   force =    -0.06374054    0.00000000    0.00004323
     atom    2 type  1   force =     0.06374054    0.00000000   -0.00004323

     Total force =     0.090143     Total SCF correction =     0.000059

     BFGS Geometry Optimization
     Energy error            =      0.0E+00
     Gradient error          =      6.4E-02

     number of scf cycles    =   1
     number of bfgs steps    =   0

     energy   new            =     -56.0038373671 Ry

     new trust radius        =       0.0637405546 bohr
     new conv_thr            =       0.0000001000 Ry


ATOMIC_POSITIONS (angstrom)
N             7.6662699588        7.5000000000        9.2320728752
N             6.5937300412        7.5000000000        9.2320271248



     Writing output data file ././N2.save/
     NEW-OLD atomic charge density approx. for the potential

     Check: negative core charge=   -0.000059

     negative rho (up, down):  3.646E-01 0.000E+00

     total cpu time spent up to now is       20.5 secs

     Self-consistent Calculation

     iteration #  1     ecut=    20.00 Ry     beta= 0.70
     Davidson diagonalization with overlap
     ethr =  1.00E-06,  avg # of iterations =  7.0

     negative rho (up, down):  3.623E-01 0.000E+00

     total cpu time spent up to now is       22.7 secs

     total energy              =     -55.99410392 Ry
     estimated scf accuracy    <       0.00920996 Ry

     iteration #  2     ecut=    20.00 Ry     beta= 0.70
     Davidson diagonalization with overlap
     ethr =  9.21E-05,  avg # of iterations =  1.0

     negative rho (up, down):  3.616E-01 0.000E+00

     total cpu time spent up to now is       24.2 secs

     total energy              =     -55.99406684 Ry
     estimated scf accuracy    <       0.00127002 Ry

     iteration #  3     ecut=    20.00 Ry     beta= 0.70
     Davidson diagonalization with overlap
     ethr =  1.27E-05,  avg # of iterations =  2.0

     negative rho (up, down):  3.621E-01 0.000E+00

     total cpu time spent up to now is       25.7 secs

     total energy              =     -55.99421563 Ry
     estimated scf accuracy    <       0.00008951 Ry

     iteration #  4     ecut=    20.00 Ry     beta= 0.70
     Davidson diagonalization with overlap
     ethr =  8.95E-07,  avg # of iterations =  4.0

     negative rho (up, down):  3.668E-01 0.000E+00

     total cpu time spent up to now is       27.1 secs

     total energy              =     -55.99419322 Ry
     estimated scf accuracy    <       0.00003497 Ry

     iteration #  5     ecut=    20.00 Ry     beta= 0.70
     Davidson diagonalization with overlap
     ethr =  3.50E-07,  avg # of iterations =  2.0

     negative rho (up, down):  3.680E-01 0.000E+00

     total cpu time spent up to now is       28.5 secs

     total energy              =     -55.99419991 Ry
     estimated scf accuracy    <       0.00000956 Ry

     iteration #  6     ecut=    20.00 Ry     beta= 0.70
     Davidson diagonalization with overlap
     ethr =  9.56E-08,  avg # of iterations =  1.0

     negative rho (up, down):  3.681E-01 0.000E+00

     total cpu time spent up to now is       29.8 secs

     total energy              =     -55.99419272 Ry
     estimated scf accuracy    <       0.00000363 Ry

     iteration #  7     ecut=    20.00 Ry     beta= 0.70
     Davidson diagonalization with overlap
     ethr =  3.63E-08,  avg # of iterations =  1.0

     negative rho (up, down):  3.685E-01 0.000E+00

     total cpu time spent up to now is       31.1 secs

     total energy              =     -55.99419501 Ry
     estimated scf accuracy    <       0.00000087 Ry

     iteration #  8     ecut=    20.00 Ry     beta= 0.70
     Davidson diagonalization with overlap
     ethr =  8.72E-09,  avg # of iterations =  1.0

     negative rho (up, down):  3.685E-01 0.000E+00

     total cpu time spent up to now is       32.5 secs

     total energy              =     -55.99419558 Ry
     estimated scf accuracy    <       0.00000029 Ry

     iteration #  9     ecut=    20.00 Ry     beta= 0.70
     Davidson diagonalization with overlap
     ethr =  2.94E-09,  avg # of iterations =  1.0

     negative rho (up, down):  3.683E-01 0.000E+00

     total cpu time spent up to now is       33.8 secs

     total energy              =     -55.99419335 Ry
     estimated scf accuracy    <       0.00000012 Ry

     iteration # 10     ecut=    20.00 Ry     beta= 0.70
     Davidson diagonalization with overlap
     ethr =  1.16E-09,  avg # of iterations =  2.0

     negative rho (up, down):  3.684E-01 0.000E+00

     total cpu time spent up to now is       34.8 secs

     End of self-consistent calculation

          k = 0.0000 0.0000 0.0000 ( 17229 PWs)   bands (ev):

   -29.3573 -13.7863 -11.6829 -11.6796 -10.0675  -1.7192  -1.4684  -1.4647
    -1.0398

     the Fermi energy is    -5.4990 ev

!    total energy              =     -55.99419419 Ry

     total all-electron energy =      -218.591791 Ry
     estimated scf accuracy    <       0.00000002 Ry
     smearing contrib. (-TS)   =      -0.00000000 Ry
     internal energy E=F+TS    =     -55.99419419 Ry

     The total energy is F=E-TS. E is the sum of the following terms:
     one-electron contribution =     -89.30667261 Ry
     hartree contribution      =      45.69973324 Ry
     xc contribution           =     -11.08274014 Ry
     ewald contribution        =      14.67882490 Ry
     one-center paw contrib.   =     -15.98333958 Ry

     convergence has been achieved in  10 iterations

     negative rho (up, down):  3.684E-01 0.000E+00

     Forces acting on atoms (cartesian axes, Ry/au):

     atom    1 type  1   force =     0.25110307    0.00000000   -0.00001814
     atom    2 type  1   force =    -0.25110307    0.00000000    0.00001814

     Total force =     0.355113     Total SCF correction =     0.000087
     Energy error            =      9.6E-03
     Gradient error          =      2.5E-01

     number of scf cycles    =   2
     number of bfgs steps    =   1

     energy   old            =     -56.0038373671 Ry
     energy   new            =     -55.9941941875 Ry

     CASE: energy  _new > energy  _old

     new trust radius        =       0.0145742784 bohr
     new conv_thr            =       0.0000001000 Ry


ATOMIC_POSITIONS (angstrom)
N             7.6922876258        7.5000000000        9.2320552304
N             6.5677123742        7.5000000000        9.2320447696



     Writing output data file ././N2.save/
     NEW-OLD atomic charge density approx. for the potential

     Check: negative core charge=   -0.000061

     negative rho (up, down):  3.502E-01 0.000E+00

     total cpu time spent up to now is       35.9 secs

     Self-consistent Calculation

     iteration #  1     ecut=    20.00 Ry     beta= 0.70
     Davidson diagonalization with overlap
     ethr =  1.00E-06,  avg # of iterations =  7.0

     negative rho (up, down):  3.602E-01 0.000E+00

     total cpu time spent up to now is       37.9 secs

     total energy              =     -56.00474020 Ry
     estimated scf accuracy    <       0.00573848 Ry

     iteration #  2     ecut=    20.00 Ry     beta= 0.70
     Davidson diagonalization with overlap
     ethr =  5.74E-05,  avg # of iterations =  1.0

     negative rho (up, down):  3.676E-01 0.000E+00

     total cpu time spent up to now is       39.3 secs

     total energy              =     -56.00484142 Ry
     estimated scf accuracy    <       0.00077773 Ry

     iteration #  3     ecut=    20.00 Ry     beta= 0.70
     Davidson diagonalization with overlap
     ethr =  7.78E-06,  avg # of iterations =  2.0

     negative rho (up, down):  3.669E-01 0.000E+00

     total cpu time spent up to now is       41.0 secs

     total energy              =     -56.00495609 Ry
     estimated scf accuracy    <       0.00005426 Ry

     iteration #  4     ecut=    20.00 Ry     beta= 0.70
     Davidson diagonalization with overlap
     ethr =  5.43E-07,  avg # of iterations =  2.0

     negative rho (up, down):  3.635E-01 0.000E+00

     total cpu time spent up to now is       42.3 secs

     total energy              =     -56.00494448 Ry
     estimated scf accuracy    <       0.00002163 Ry

     iteration #  5     ecut=    20.00 Ry     beta= 0.70
     Davidson diagonalization with overlap
     ethr =  2.16E-07,  avg # of iterations =  2.0

     negative rho (up, down):  3.621E-01 0.000E+00

     total cpu time spent up to now is       43.7 secs

     total energy              =     -56.00493857 Ry
     estimated scf accuracy    <       0.00000561 Ry

     iteration #  6     ecut=    20.00 Ry     beta= 0.70
     Davidson diagonalization with overlap
     ethr =  5.61E-08,  avg # of iterations =  1.0

     negative rho (up, down):  3.621E-01 0.000E+00

     total cpu time spent up to now is       45.1 secs

     total energy              =     -56.00494041 Ry
     estimated scf accuracy    <       0.00000223 Ry

     iteration #  7     ecut=    20.00 Ry     beta= 0.70
     Davidson diagonalization with overlap
     ethr =  2.23E-08,  avg # of iterations =  1.0

     negative rho (up, down):  3.619E-01 0.000E+00

     total cpu time spent up to now is       46.4 secs

     total energy              =     -56.00493978 Ry
     estimated scf accuracy    <       0.00000061 Ry

     iteration #  8     ecut=    20.00 Ry     beta= 0.70
     Davidson diagonalization with overlap
     ethr =  6.06E-09,  avg # of iterations =  1.0

     negative rho (up, down):  3.617E-01 0.000E+00

     total cpu time spent up to now is       47.9 secs

     total energy              =     -56.00493727 Ry
     estimated scf accuracy    <       0.00000030 Ry

     iteration #  9     ecut=    20.00 Ry     beta= 0.70
     Davidson diagonalization with overlap
     ethr =  2.95E-09,  avg # of iterations =  1.0

     negative rho (up, down):  3.618E-01 0.000E+00

     total cpu time spent up to now is       48.8 secs

     End of self-consistent calculation

          k = 0.0000 0.0000 0.0000 ( 17229 PWs)   bands (ev):

   -28.5622 -14.2038 -11.2814 -11.2772  -9.9672  -2.0436  -2.0388  -1.7310
    -1.0623

     the Fermi energy is    -5.3681 ev

!    total energy              =     -56.00493843 Ry

     total all-electron energy =      -218.602535 Ry
     estimated scf accuracy    <       0.00000007 Ry
     smearing contrib. (-TS)   =      -0.00000000 Ry
     internal energy E=F+TS    =     -56.00493843 Ry

     The total energy is F=E-TS. E is the sum of the following terms:
     one-electron contribution =     -87.33392399 Ry
     hartree contribution      =      44.72520116 Ry
     xc contribution           =     -10.95451339 Ry
     ewald contribution        =      13.53925419 Ry
     one-center paw contrib.   =     -15.98095640 Ry

     convergence has been achieved in   9 iterations

     negative rho (up, down):  3.618E-01 0.000E+00

     Forces acting on atoms (cartesian axes, Ry/au):

     atom    1 type  1   force =    -0.00857169    0.00000000   -0.00000152
     atom    2 type  1   force =     0.00857169    0.00000000    0.00000152

     Total force =     0.012122     Total SCF correction =     0.000300
     Energy error            =      1.1E-03
     Gradient error          =      8.6E-03

     number of scf cycles    =   3
     number of bfgs steps    =   1

     energy   old            =     -56.0038373671 Ry
     energy   new            =     -56.0049384339 Ry

     CASE: energy  _new < energy  _old

     new trust radius        =       0.0022644480 bohr
     new conv_thr            =       0.0000000086 Ry


ATOMIC_POSITIONS (angstrom)
N             7.6910893371        7.5000000000        9.2320515590
N             6.5689106629        7.5000000000        9.2320484410



     Writing output data file ././N2.save/
     NEW-OLD atomic charge density approx. for the potential

     Check: negative core charge=   -0.000061

     negative rho (up, down):  3.621E-01 0.000E+00

     total cpu time spent up to now is       49.9 secs

     Self-consistent Calculation

     iteration #  1     ecut=    20.00 Ry     beta= 0.70
     Davidson diagonalization with overlap
     ethr =  1.00E-06,  avg # of iterations =  3.0

     negative rho (up, down):  3.618E-01 0.000E+00

     total cpu time spent up to now is       51.4 secs

     total energy              =     -56.00496277 Ry
     estimated scf accuracy    <       0.00001006 Ry

     iteration #  2     ecut=    20.00 Ry     beta= 0.70
     Davidson diagonalization with overlap
     ethr =  1.01E-07,  avg # of iterations =  1.0

     negative rho (up, down):  3.617E-01 0.000E+00

     total cpu time spent up to now is       53.0 secs

     total energy              =     -56.00496079 Ry
     estimated scf accuracy    <       0.00000151 Ry

     iteration #  3     ecut=    20.00 Ry     beta= 0.70
     Davidson diagonalization with overlap
     ethr =  1.51E-08,  avg # of iterations =  2.0

     negative rho (up, down):  3.617E-01 0.000E+00

     total cpu time spent up to now is       54.6 secs

     total energy              =     -56.00496048 Ry
     estimated scf accuracy    <       0.00000010 Ry

     iteration #  4     ecut=    20.00 Ry     beta= 0.70
     Davidson diagonalization with overlap
     ethr =  1.01E-09,  avg # of iterations =  1.0

     negative rho (up, down):  3.618E-01 0.000E+00

     total cpu time spent up to now is       56.0 secs

     total energy              =     -56.00496034 Ry
     estimated scf accuracy    <       0.00000004 Ry

     iteration #  5     ecut=    20.00 Ry     beta= 0.70
     Davidson diagonalization with overlap
     ethr =  4.37E-10,  avg # of iterations =  1.0

     negative rho (up, down):  3.619E-01 0.000E+00

     total cpu time spent up to now is       57.4 secs

     total energy              =     -56.00496052 Ry
     estimated scf accuracy    <       0.00000002 Ry

     iteration #  6     ecut=    20.00 Ry     beta= 0.70
     Davidson diagonalization with overlap
     ethr =  1.62E-10,  avg # of iterations =  2.0

     negative rho (up, down):  3.619E-01 0.000E+00

     total cpu time spent up to now is       58.2 secs

     End of self-consistent calculation

          k = 0.0000 0.0000 0.0000 ( 17229 PWs)   bands (ev):

   -28.5980 -14.1855 -11.2993 -11.2951  -9.9715  -2.0183  -2.0136  -1.7308
    -1.0615

     the Fermi energy is    -5.3743 ev

!    total energy              =     -56.00496049 Ry

     total all-electron energy =      -218.602557 Ry
     estimated scf accuracy    <          5.6E-09 Ry
     smearing contrib. (-TS)   =      -0.00000000 Ry
     internal energy E=F+TS    =     -56.00496049 Ry

     The total energy is F=E-TS. E is the sum of the following terms:
     one-electron contribution =     -87.42141155 Ry
     hartree contribution      =      44.76805687 Ry
     xc contribution           =     -10.96000612 Ry
     ewald contribution        =      13.58941153 Ry
     one-center paw contrib.   =     -15.98101123 Ry

     convergence has been achieved in   6 iterations

     negative rho (up, down):  3.619E-01 0.000E+00

     Forces acting on atoms (cartesian axes, Ry/au):

     atom    1 type  1   force =     0.00076723    0.00000000    0.00001205
     atom    2 type  1   force =    -0.00076723    0.00000000   -0.00001205

     Total force =     0.001085     Total SCF correction =     0.000055
     Energy error            =      2.2E-05
     Gradient error          =      7.7E-04

     bfgs converged in   4 scf cycles and   2 bfgs steps
     (criteria: energy <  1.0E-04 Ry, force <  1.0E-03 Ry/Bohr)

     End of BFGS Geometry Optimization

     Final energy   =     -56.0049604943 Ry

     File ././N2.bfgs deleted, as requested
Begin final coordinates

ATOMIC_POSITIONS (angstrom)
N             7.6910893371        7.5000000000        9.2320515590
N             6.5689106629        7.5000000000        9.2320484410
End final coordinates



     Writing output data file ././N2.save/

     init_run     :      0.71s CPU      0.84s WALL (       1 calls)
     electrons    :     51.93s CPU     53.84s WALL (       4 calls)
     update_pot   :      1.24s CPU      1.28s WALL (       3 calls)
     forces       :      2.05s CPU      2.16s WALL (       4 calls)

     Called by init_run:
     wfcinit      :      0.11s CPU      0.11s WALL (       1 calls)
     potinit      :      0.33s CPU      0.39s WALL (       1 calls)
     hinit0       :      0.13s CPU      0.16s WALL (       1 calls)

     Called by electrons:
     c_bands      :     11.29s CPU     11.34s WALL (      38 calls)
     sum_band     :      5.67s CPU      6.20s WALL (      38 calls)
     v_of_rho     :      9.71s CPU      9.94s WALL (      41 calls)
     newd         :      3.06s CPU      4.02s WALL (      41 calls)
     PAW_pot      :      3.35s CPU      3.35s WALL (      44 calls)
     mix_rho      :     20.41s CPU     20.66s WALL (      38 calls)

     Called by c_bands:
     init_us_2    :      0.22s CPU      0.22s WALL (      80 calls)
     regterg      :     10.92s CPU     10.97s WALL (      38 calls)

     Called by *egterg:
     rdiaghg      :      0.02s CPU      0.02s WALL (     120 calls)
     h_psi        :      8.42s CPU      8.47s WALL (     125 calls)
     s_psi        :      0.43s CPU      0.43s WALL (     125 calls)
     g_psi        :      0.08s CPU      0.08s WALL (      86 calls)

     Called by h_psi:
     h_psi:calbec :      0.54s CPU      0.54s WALL (     125 calls)
     vloc_psi     :      7.42s CPU      7.46s WALL (     125 calls)
     add_vuspsi   :      0.43s CPU      0.43s WALL (     125 calls)

     General routines
     calbec       :      0.87s CPU      0.87s WALL (     182 calls)
     fft          :      3.74s CPU      3.80s WALL (     409 calls)
     ffts         :     11.92s CPU     12.03s WALL (    1323 calls)
     fftw         :      7.74s CPU      7.81s WALL (    1150 calls)

     Parallel routines

     PWSCF        :     56.53s CPU     58.81s WALL


   This run was terminated on:  10:16: 9  12Oct2023            

=------------------------------------------------------------------------------=
   JOB DONE.
=------------------------------------------------------------------------------=
